Siesta Version  : 5.0.0-alpha-76-g9b2341135-dirty
Architecture    : ----
Compiler version: GNU-12.3.0
Compiler flags  : -fallow-argument-mismatch; -g -O0
PP flags        : ----
Libraries       : ----
Parallelisations: MPI
NetCDF support
NetCDF-4 support

Runtime information:
* Directory : /Users/albertog/code/GITLAB/Siesta/garalb/Linked/streamline-build/_pexsi/install_tests/si-qdot-pexsi-native
* Running on 4 nodes in parallel.
>> Start of run:  14-JUN-2023   9:25:30

                           *********************** 
                           *  WELCOME TO SIESTA  * 
                           *********************** 

reinit: Reading from file si-qdot-pexsi-native.fdf

reinit: -----------------------------------------------------------------------
reinit: System Name: Si Quantum Dot with native PEXSI interface
reinit: -----------------------------------------------------------------------
reinit: System Label: si-qdot-pexsi-native
reinit: -----------------------------------------------------------------------

initatom: Reading input for the pseudopotentials and atomic orbitals ----------
Species number:   1 Atomic number:   14 Label: Si
Species number:   2 Atomic number:    1 Label: H


---- Processing specs for species: Si
Ground state valence configuration:   3s02  3p02
Reading pseudopotential information in formatted form from:
  /Users/albertog/G/Siesta/garalb/Linked/streamline-build/Tests/Pseudos/Si.psf

---- Processing specs for species: H
Ground state valence configuration:   1s01
Reading pseudopotential information in formatted form from:
  /Users/albertog/G/Siesta/garalb/Linked/streamline-build/Tests/Pseudos/H.psf

---- Pseudopotential check for Si

Pseudized shells:
3s( 2.00) rc: 1.89
3p( 2.00) rc: 1.89
3d( 0.00) rc: 1.89
4f( 0.00) rc: 1.89
Valence configuration for ps generation: (assumed as above)

---- Pseudopotential check for H 

Pseudized shells:
1s( 1.00) rc: 1.25
2p( 0.00) rc: 1.25
3d( 0.00) rc: 1.25
4f( 0.00) rc: 1.25
Valence configuration for ps generation: (assumed as above)
For Si, standard SIESTA heuristics set lmxkb to 2
 (one more than the basis l, including polarization orbitals).
Use PS.lmax or PS.KBprojectors blocks to override.
For H, standard SIESTA heuristics set lmxkb to 1
 (one more than the basis l, including polarization orbitals).
Use PS.lmax or PS.KBprojectors blocks to override.

<basis_specs>
===============================================================================
Si                   Z=  14    Mass=  28.090        Charge= 0.17977+309
Lmxo=1 Lmxkb= 2    BasisType=split      Semic=F
L=0  Nsemic=0  Cnfigmx=3
          i=1  nzeta=1  polorb=0  (3s)
            splnorm:   0.15000    
               vcte:    0.0000    
               rinn:    0.0000    
               qcoe:    0.0000    
               qyuk:    0.0000    
               qwid:   0.10000E-01
                rcs:    0.0000    
            lambdas:    1.0000    
L=1  Nsemic=0  Cnfigmx=3
          i=1  nzeta=1  polorb=0  (3p)
            splnorm:   0.15000    
               vcte:    0.0000    
               rinn:    0.0000    
               qcoe:    0.0000    
               qyuk:    0.0000    
               qwid:   0.10000E-01
                rcs:    0.0000    
            lambdas:    1.0000    
-------------------------------------------------------------------------------
L=0  Nkbl=1  erefs: 0.17977+309
L=1  Nkbl=1  erefs: 0.17977+309
L=2  Nkbl=1  erefs: 0.17977+309
===============================================================================
</basis_specs>

atom: Called for Si                    (Z =  14)

read_vps: Pseudopotential generation method:
read_vps: ATM3      Troullier-Martins                       
Valence charge in pseudo generation:    4.00000

xc_check: Exchange-correlation functional:
xc_check: Ceperley-Alder
V l=0 = -2*Zval/r beyond r=  2.5494
V l=1 = -2*Zval/r beyond r=  2.5494
V l=2 = -2*Zval/r beyond r=  2.5494
All V_l potentials equal beyond r=  1.8652
This should be close to max(r_c) in ps generation
All pots = -2*Zval/r beyond r=  2.5494
Using large-core scheme (fit) for Vlocal

atom: Estimated core radius    2.54944

atom: Including non-local core corrections could be a good idea
Fit of Vlocal with continuous 2nd derivative
Fitting vlocal at       1.9364
Choosing vlocal chloc cutoff:776  2.853027
qtot up to nchloc:    3.99976076
atom: Maximum radius for chlocal:    2.85303
atom: Maximum radius for r*vlocal+2*Zval:    2.85303

KBgen: Kleinman-Bylander projectors: 
GHOST: No ghost state for L =  0
   l= 0   rc=  1.936440   el= -0.796617   Ekb=  4.661340   kbcos=  0.299756
GHOST: No ghost state for L =  1
   l= 1   rc=  1.936440   el= -0.307040   Ekb=  1.494238   kbcos=  0.301471
GHOST: No ghost state for L =  2
   l= 2   rc=  1.936440   el=  0.002313   Ekb= -2.808672   kbcos= -0.054903

KBgen: Total number of Kleinman-Bylander projectors:   9
atom: -------------------------------------------------------------------------

atom: SANKEY-TYPE ORBITALS:

SPLIT: Orbitals with angular momentum L= 0

SPLIT: Basis orbitals for state 3s

SPLIT: PAO cut-off radius determined from an
SPLIT: energy shift=  0.022049 Ry

   izeta = 1
                 lambda =    1.000000
                     rc =    4.883716
                 energy =   -0.773554
                kinetic =    0.585471
    potential(screened) =   -1.359025
       potential(ionic) =   -3.840954

SPLIT: Orbitals with angular momentum L= 1

SPLIT: Basis orbitals for state 3p

SPLIT: PAO cut-off radius determined from an
SPLIT: energy shift=  0.022049 Ry

   izeta = 1
                 lambda =    1.000000
                     rc =    6.116033
                 energy =   -0.285742
                kinetic =    0.892202
    potential(screened) =   -1.177944
       potential(ionic) =   -3.446720
atom: Total number of Sankey-type orbitals:  4

atm_pop: Valence configuration (for local Pseudopot. screening):
 3s( 2.00)                                                            
 3p( 2.00)                                                            
Vna: chval, zval:    4.00000   4.00000

Vna:  Cut-off radius for the neutral-atom potential:   6.116033

atom: _________________________________________________________________________

<basis_specs>
===============================================================================
H                    Z=   1    Mass=  1.0100        Charge= 0.17977+309
Lmxo=0 Lmxkb= 1    BasisType=split      Semic=F
L=0  Nsemic=0  Cnfigmx=1
          i=1  nzeta=1  polorb=0  (1s)
            splnorm:   0.15000    
               vcte:    0.0000    
               rinn:    0.0000    
               qcoe:    0.0000    
               qyuk:    0.0000    
               qwid:   0.10000E-01
                rcs:    0.0000    
            lambdas:    1.0000    
-------------------------------------------------------------------------------
L=0  Nkbl=1  erefs: 0.17977+309
L=1  Nkbl=1  erefs: 0.17977+309
===============================================================================
</basis_specs>

atom: Called for H                     (Z =   1)

read_vps: Pseudopotential generation method:
read_vps: ATM3      Troullier-Martins                       
Valence charge in pseudo generation:    1.00000

xc_check: Exchange-correlation functional:
xc_check: Ceperley-Alder
V l=0 = -2*Zval/r beyond r=  1.2343
V l=1 = -2*Zval/r beyond r=  1.2189
All V_l potentials equal beyond r=  1.2343
This should be close to max(r_c) in ps generation
All pots = -2*Zval/r beyond r=  1.2343
Using small-core scheme (local charge) for Vlocal

VLOCAL_FROM_CHLOCAL: 99.0% of the norm of Vloc inside     28.493 Ry
VLOCAL_FROM_CHLOCAL: 99.9% of the norm of Vloc inside     64.935 Ry
atom: Maximum radius for chlocal:    1.45251
atom: Maximum radius for r*vlocal+2*Zval:    1.31405

KBgen: Kleinman-Bylander projectors: 
GHOST: No ghost state for L =  0
   l= 0   rc=  1.364359   el= -0.467325   Ekb= -2.005361   kbcos= -0.336422
GHOST: No ghost state for L =  1
   l= 1   rc=  1.434438   el=  0.001430   Ekb= -0.501708   kbcos= -0.021697

KBgen: Total number of Kleinman-Bylander projectors:   4
atom: -------------------------------------------------------------------------

atom: SANKEY-TYPE ORBITALS:

SPLIT: Orbitals with angular momentum L= 0

SPLIT: Basis orbitals for state 1s

SPLIT: PAO cut-off radius determined from an
SPLIT: energy shift=  0.022049 Ry

   izeta = 1
                 lambda =    1.000000
                     rc =    4.708991
                 energy =   -0.446429
                kinetic =    0.942775
    potential(screened) =   -1.389204
       potential(ionic) =   -1.926771
atom: Total number of Sankey-type orbitals:  1

atm_pop: Valence configuration (for local Pseudopot. screening):
 1s( 1.00)                                                            
Vna: chval, zval:    1.00000   1.00000

Vna:  Cut-off radius for the neutral-atom potential:   4.708991

atom: _________________________________________________________________________

prinput: Basis input 

PAO.BasisType split     

%block ChemicalSpeciesLabel
    1   14 Si                      # Species index, atomic number, species label
    2    1 H                       # Species index, atomic number, species label
%endblock ChemicalSpeciesLabel

%block PAO.Basis                 # Define Basis set
# WARNING: This information might be incomplete!
Si                    2                    # Species label, number of l-shells
 n=3   0   1                         # n, l, Nzeta 
   4.884   
   1.000   
 n=3   1   1                         # n, l, Nzeta 
   6.116   
   1.000   
H                     1                    # Species label, number of l-shells
 n=1   0   1                         # n, l, Nzeta 
   4.709   
   1.000   
%endblock PAO.Basis

prinput: ----------------------------------------------------------------------

Dumping basis to NetCDF file Si.ion.nc
Dumping basis to NetCDF file H.ion.nc
coor:   Atomic-coordinates input format  =     Cartesian coordinates
coor:                                          (in Angstroms)

siesta: Atomic coordinates (Bohr) and species
siesta:    -23.19615 -12.85379  -7.68854  1        1
siesta:    -23.16201 -18.03440  -2.55687  1        2
siesta:    -28.35162 -12.88773  -2.51949  1        3
siesta:    -25.73433 -15.46254  -0.04933  1        4
siesta:    -23.20509 -12.90620   2.56853  1        5
siesta:    -23.21288 -18.03059   7.79530  1        6
siesta:    -25.74666 -15.76222  10.60400  1        7
siesta:    -23.25591 -12.94085  12.94085  1        8
siesta:    -23.16201  -2.55687 -18.03440  1        9
siesta:    -23.19615  -7.68854 -12.85379  1       10
siesta:    -28.35162  -2.51949 -12.88773  1       11
siesta:    -25.82969  -5.14214 -10.31602  1       12
siesta:    -25.82969 -10.31602  -5.14214  1       13
siesta:    -30.93527  -5.16154  -5.16154  1       14
siesta:    -28.36542  -7.69856  -7.69856  1       15
siesta:    -23.24594  -2.56620  -7.73836  1       16
siesta:    -23.24594  -7.73836  -2.56620  1       17
siesta:    -28.42900  -2.57708  -2.57708  1       18
siesta:    -30.88067 -10.64285   0.31694  1       19
siesta:    -25.85437  -5.16006   0.00568  1       20
siesta:    -25.72214 -10.25197   5.09066  1       21
siesta:    -30.89012  -5.48376   5.48376  1       22
siesta:    -28.41041  -7.75714   2.60009  1       23
siesta:    -23.25634  -2.58915   2.58915  1       24
siesta:    -23.19122  -7.73659   7.73659  1       25
siesta:    -28.41041  -2.60009   7.75714  1       26
siesta:    -25.72214  -5.09066  10.25197  1       27
siesta:    -25.74666 -10.60400  15.76222  1       28
siesta:    -23.20509  -2.56853  12.90620  1       29
siesta:    -23.21288  -7.79530  18.03059  1       30
siesta:    -25.73433  -0.04933 -15.46254  1       31
siesta:    -23.21288   7.79530 -18.03059  1       32
siesta:    -23.20509   2.56853 -12.90620  1       33
siesta:    -30.88067   0.31694 -10.64285  1       34
siesta:    -25.72214   5.09066 -10.25197  1       35
siesta:    -25.85437   0.00568  -5.16006  1       36
siesta:    -30.89012   5.48376  -5.48376  1       37
siesta:    -28.41041   2.60009  -7.75714  1       38
siesta:    -23.19122   7.73659  -7.73659  1       39
siesta:    -23.25634   2.58915  -2.58915  1       40
siesta:    -28.41041   7.75714  -2.60009  1       41
siesta:    -30.95035   0.00000   0.00000  1       42
siesta:    -25.85437   5.16006  -0.00568  1       43
siesta:    -25.85437  -0.00568   5.16006  1       44
siesta:    -30.93527   5.16154   5.16154  1       45
siesta:    -28.42900   2.57708   2.57708  1       46
siesta:    -23.24594   7.73836   2.56620  1       47
siesta:    -23.24594   2.56620   7.73836  1       48
siesta:    -28.36542   7.69856   7.69856  1       49
siesta:    -30.88067  -0.31694  10.64285  1       50
siesta:    -25.82969   5.14214  10.31602  1       51
siesta:    -25.73433   0.04933  15.46254  1       52
siesta:    -28.35162   2.51949  12.88773  1       53
siesta:    -23.19615   7.68854  12.85379  1       54
siesta:    -23.16201   2.55687  18.03440  1       55
siesta:    -25.74666  10.60400 -15.76222  1       56
siesta:    -23.25591  12.94085 -12.94085  1       57
siesta:    -25.74666  15.76222 -10.60400  1       58
siesta:    -25.72214  10.25197  -5.09066  1       59
siesta:    -23.21288  18.03059  -7.79530  1       60
siesta:    -23.20509  12.90620  -2.56853  1       61
siesta:    -30.88067  10.64285  -0.31694  1       62
siesta:    -25.73433  15.46254   0.04933  1       63
siesta:    -25.82969  10.31602   5.14214  1       64
siesta:    -28.35162  12.88773   2.51949  1       65
siesta:    -23.16201  18.03440   2.55687  1       66
siesta:    -23.19615  12.85379   7.68854  1       67
siesta:    -12.85379 -23.19615  -7.68854  1       68
siesta:    -12.88773 -28.35162  -2.51949  1       69
siesta:    -18.03440 -23.16201  -2.55687  1       70
siesta:    -15.46254 -25.73433  -0.04933  1       71
siesta:    -12.90620 -23.20509   2.56853  1       72
siesta:    -18.03059 -23.21288   7.79530  1       73
siesta:    -15.76222 -25.74666  10.60400  1       74
siesta:    -12.94085 -23.25591  12.94085  1       75
siesta:    -12.85398 -12.85398 -18.02524  1       76
siesta:    -12.85398 -18.02524 -12.85398  1       77
siesta:    -18.02524 -12.85398 -12.85398  1       78
siesta:    -15.47090 -15.47090 -10.31907  1       79
siesta:    -15.47607 -20.63317  -5.16469  1       80
siesta:    -20.63317 -15.47607  -5.16469  1       81
siesta:    -18.01616 -18.01616  -7.71346  1       82
siesta:    -12.89669 -12.89669  -7.73836  1       83
siesta:    -12.90405 -18.05551  -2.57933  1       84
siesta:    -18.05551 -12.90405  -2.57933  1       85
siesta:    -20.60084 -20.60084  -0.02466  1       86
siesta:    -15.48841 -15.48841   0.02272  1       87
siesta:    -15.48179 -20.66246   5.18611  1       88
siesta:    -20.66246 -15.48179   5.18611  1       89
siesta:    -18.07080 -18.07080   2.61385  1       90
siesta:    -12.90484 -12.90484   2.59281  1       91
siesta:    -12.90126 -18.07504   7.75352  1       92
siesta:    -18.07504 -12.90126   7.75352  1       93
siesta:    -20.60353 -20.60353  10.26659  1       94
siesta:    -15.48338 -15.48338  10.32381  1       95
siesta:    -15.44909 -20.58396  15.44909  1       96
siesta:    -20.58396 -15.44909  15.44909  1       97
siesta:    -18.06184 -18.06184  12.89307  1       98
siesta:    -12.90118 -12.90118  12.90118  1       99
siesta:    -12.89307 -18.06184  18.06184  1      100
siesta:    -18.06184 -12.89307  18.06184  1      101
siesta:    -15.44909 -15.44909  20.58396  1      102
siesta:    -12.94085 -12.94085  23.25591  1      103
siesta:    -12.88773  -2.51949 -28.35162  1      104
siesta:    -12.85379  -7.68854 -23.19615  1      105
siesta:    -18.03440  -2.55687 -23.16201  1      106
siesta:    -15.47607  -5.16469 -20.63317  1      107
siesta:    -15.47090 -10.31907 -15.47090  1      108
siesta:    -20.63317  -5.16469 -15.47607  1      109
siesta:    -18.01616  -7.71346 -18.01616  1      110
siesta:    -12.90405  -2.57933 -18.05551  1      111
siesta:    -12.89669  -7.73836 -12.89669  1      112
siesta:    -18.05551  -2.57933 -12.90405  1      113
siesta:    -20.65120 -10.30916 -10.30916  1      114
siesta:    -15.47962  -5.15688 -10.31577  1      115
siesta:    -15.47962 -10.31577  -5.15688  1      116
siesta:    -20.66507  -5.15263  -5.15263  1      117
siesta:    -18.07164  -7.73269  -7.73269  1      118
siesta:    -12.90051  -2.57735  -7.73823  1      119
siesta:    -12.90051  -7.73823  -2.57735  1      120
siesta:    -18.08101  -2.57487  -2.57487  1      121
siesta:    -20.63435 -10.31924  -0.00222  1      122
siesta:    -15.48554  -5.15456  -0.00413  1      123
siesta:    -15.49203 -10.32209   5.16805  1      124
siesta:    -20.63260  -5.15543   5.15543  1      125
siesta:    -18.05730  -7.73671   2.57571  1      126
siesta:    -12.90349  -2.57886   2.57886  1      127
siesta:    -12.90618  -7.74332   7.74332  1      128
siesta:    -18.05730  -2.57571   7.73671  1      129
siesta:    -20.67804 -10.34757  10.34757  1      130
siesta:    -15.49203  -5.16805  10.32209  1      131
siesta:    -15.48338 -10.32381  15.48338  1      132
siesta:    -20.66246  -5.18611  15.48179  1      133
siesta:    -18.07504  -7.75352  12.90126  1      134
siesta:    -12.90484  -2.59281  12.90484  1      135
siesta:    -12.90126  -7.75352  18.07504  1      136
siesta:    -18.07080  -2.61385  18.07080  1      137
siesta:    -20.60353 -10.26659  20.60353  1      138
siesta:    -15.48179  -5.18611  20.66246  1      139
siesta:    -15.76222 -10.60400  25.74666  1      140
siesta:    -18.03059  -7.79530  23.21288  1      141
siesta:    -12.90620  -2.56853  23.20509  1      142
siesta:    -15.46254  -0.04933 -25.73433  1      143
siesta:    -12.90620   2.56853 -23.20509  1      144
siesta:    -18.03059   7.79530 -23.21288  1      145
siesta:    -20.60084  -0.02466 -20.60084  1      146
siesta:    -15.48179   5.18611 -20.66246  1      147
siesta:    -15.48841   0.02272 -15.48841  1      148
siesta:    -20.66246   5.18611 -15.48179  1      149
siesta:    -18.07080   2.61385 -18.07080  1      150
siesta:    -12.90126   7.75352 -18.07504  1      151
siesta:    -12.90484   2.59281 -12.90484  1      152
siesta:    -18.07504   7.75352 -12.90126  1      153
siesta:    -20.63435  -0.00222 -10.31924  1      154
siesta:    -15.49203   5.16805 -10.32209  1      155
siesta:    -15.48554  -0.00413  -5.15456  1      156
siesta:    -20.63260   5.15543  -5.15543  1      157
siesta:    -18.05730   2.57571  -7.73671  1      158
siesta:    -12.90618   7.74332  -7.74332  1      159
siesta:    -12.90349   2.57886  -2.57886  1      160
siesta:    -18.05730   7.73671  -2.57571  1      161
siesta:    -20.68022   0.00000  -0.00000  1      162
siesta:    -15.48554   5.15456   0.00413  1      163
siesta:    -15.48554   0.00413   5.15456  1      164
siesta:    -20.66507   5.15263   5.15263  1      165
siesta:    -18.08101   2.57487   2.57487  1      166
siesta:    -12.90051   7.73823   2.57735  1      167
siesta:    -12.90051   2.57735   7.73823  1      168
siesta:    -18.07164   7.73269   7.73269  1      169
siesta:    -20.63435   0.00222  10.31924  1      170
siesta:    -15.47962   5.15688  10.31577  1      171
siesta:    -15.48841  -0.02272  15.48841  1      172
siesta:    -20.63317   5.16469  15.47607  1      173
siesta:    -18.05551   2.57933  12.90405  1      174
siesta:    -12.89669   7.73836  12.89669  1      175
siesta:    -12.90405   2.57933  18.05551  1      176
siesta:    -18.01616   7.71346  18.01616  1      177
siesta:    -20.60084   0.02466  20.60084  1      178
siesta:    -15.47607   5.16469  20.63317  1      179
siesta:    -15.46254   0.04933  25.73433  1      180
siesta:    -18.03440   2.55687  23.16201  1      181
siesta:    -12.85379   7.68854  23.19615  1      182
siesta:    -12.88773   2.51949  28.35162  1      183
siesta:    -15.76222  10.60400 -25.74666  1      184
siesta:    -12.94085  12.94085 -23.25591  1      185
siesta:    -20.60353  10.26659 -20.60353  1      186
siesta:    -15.44909  15.44909 -20.58396  1      187
siesta:    -15.48338  10.32381 -15.48338  1      188
siesta:    -20.58396  15.44909 -15.44909  1      189
siesta:    -18.06184  12.89307 -18.06184  1      190
siesta:    -12.89307  18.06184 -18.06184  1      191
siesta:    -12.90118  12.90118 -12.90118  1      192
siesta:    -18.06184  18.06184 -12.89307  1      193
siesta:    -20.67804  10.34757 -10.34757  1      194
siesta:    -15.48338  15.48338 -10.32381  1      195
siesta:    -15.49203  10.32209  -5.16805  1      196
siesta:    -20.66246  15.48179  -5.18611  1      197
siesta:    -18.07504  12.90126  -7.75352  1      198
siesta:    -12.90126  18.07504  -7.75352  1      199
siesta:    -12.90484  12.90484  -2.59281  1      200
siesta:    -18.07080  18.07080  -2.61385  1      201
siesta:    -20.63435  10.31924   0.00222  1      202
siesta:    -15.48841  15.48841  -0.02272  1      203
siesta:    -15.47962  10.31577   5.15688  1      204
siesta:    -20.63317  15.47607   5.16469  1      205
siesta:    -18.05551  12.90405   2.57933  1      206
siesta:    -12.90405  18.05551   2.57933  1      207
siesta:    -12.89669  12.89669   7.73836  1      208
siesta:    -18.01616  18.01616   7.71346  1      209
siesta:    -20.65120  10.30916  10.30916  1      210
siesta:    -15.47090  15.47090  10.31907  1      211
siesta:    -15.47090  10.31907  15.47090  1      212
siesta:    -18.02524  12.85398  12.85398  1      213
siesta:    -12.85398  18.02524  12.85398  1      214
siesta:    -12.85398  12.85398  18.02524  1      215
siesta:    -15.44909  20.58396 -15.44909  1      216
siesta:    -12.94085  23.25591 -12.94085  1      217
siesta:    -20.60353  20.60353 -10.26659  1      218
siesta:    -15.76222  25.74666 -10.60400  1      219
siesta:    -15.48179  20.66246  -5.18611  1      220
siesta:    -18.03059  23.21288  -7.79530  1      221
siesta:    -12.90620  23.20509  -2.56853  1      222
siesta:    -20.60084  20.60084   0.02466  1      223
siesta:    -15.46254  25.73433   0.04933  1      224
siesta:    -15.47607  20.63317   5.16469  1      225
siesta:    -18.03440  23.16201   2.55687  1      226
siesta:    -12.88773  28.35162   2.51949  1      227
siesta:    -12.85379  23.19615   7.68854  1      228
siesta:     -2.55687 -23.16201 -18.03440  1      229
siesta:     -2.51949 -28.35162 -12.88773  1      230
siesta:     -7.68854 -23.19615 -12.85379  1      231
siesta:     -5.14214 -25.82969 -10.31602  1      232
siesta:     -5.16154 -30.93527  -5.16154  1      233
siesta:    -10.31602 -25.82969  -5.14214  1      234
siesta:     -7.69856 -28.36542  -7.69856  1      235
siesta:     -2.56620 -23.24594  -7.73836  1      236
siesta:     -2.57708 -28.42900  -2.57708  1      237
siesta:     -7.73836 -23.24594  -2.56620  1      238
siesta:    -10.64285 -30.88067   0.31694  1      239
siesta:     -5.16006 -25.85437   0.00568  1      240
siesta:     -5.48376 -30.89012   5.48376  1      241
siesta:    -10.25197 -25.72214   5.09066  1      242
siesta:     -7.75714 -28.41041   2.60009  1      243
siesta:     -2.58915 -23.25634   2.58915  1      244
siesta:     -2.60009 -28.41041   7.75714  1      245
siesta:     -7.73659 -23.19122   7.73659  1      246
siesta:     -5.09066 -25.72214  10.25197  1      247
siesta:    -10.60400 -25.74666  15.76222  1      248
siesta:     -2.56853 -23.20509  12.90620  1      249
siesta:     -7.79530 -23.21288  18.03059  1      250
siesta:     -2.51949 -12.88773 -28.35162  1      251
siesta:     -2.55687 -18.03440 -23.16201  1      252
siesta:     -7.68854 -12.85379 -23.19615  1      253
siesta:     -5.16469 -15.47607 -20.63317  1      254
siesta:     -5.16469 -20.63317 -15.47607  1      255
siesta:    -10.31907 -15.47090 -15.47090  1      256
siesta:     -7.71346 -18.01616 -18.01616  1      257
siesta:     -2.57933 -12.90405 -18.05551  1      258
siesta:     -2.57933 -18.05551 -12.90405  1      259
siesta:     -7.73836 -12.89669 -12.89669  1      260
siesta:    -10.30916 -20.65120 -10.30916  1      261
siesta:     -5.15688 -15.47962 -10.31577  1      262
siesta:     -5.15263 -20.66507  -5.15263  1      263
siesta:    -10.31577 -15.47962  -5.15688  1      264
siesta:     -7.73269 -18.07164  -7.73269  1      265
siesta:     -2.57735 -12.90051  -7.73823  1      266
siesta:     -2.57487 -18.08101  -2.57487  1      267
siesta:     -7.73823 -12.90051  -2.57735  1      268
siesta:    -10.31924 -20.63435  -0.00222  1      269
siesta:     -5.15456 -15.48554  -0.00413  1      270
siesta:     -5.15543 -20.63260   5.15543  1      271
siesta:    -10.32209 -15.49203   5.16805  1      272
siesta:     -7.73671 -18.05730   2.57571  1      273
siesta:     -2.57886 -12.90349   2.57886  1      274
siesta:     -2.57571 -18.05730   7.73671  1      275
siesta:     -7.74332 -12.90618   7.74332  1      276
siesta:    -10.34757 -20.67804  10.34757  1      277
siesta:     -5.16805 -15.49203  10.32209  1      278
siesta:     -5.18611 -20.66246  15.48179  1      279
siesta:    -10.32381 -15.48338  15.48338  1      280
siesta:     -7.75352 -18.07504  12.90126  1      281
siesta:     -2.59281 -12.90484  12.90484  1      282
siesta:     -2.61385 -18.07080  18.07080  1      283
siesta:     -7.75352 -12.90126  18.07504  1      284
siesta:    -10.26659 -20.60353  20.60353  1      285
siesta:     -5.18611 -15.48179  20.66246  1      286
siesta:    -10.60400 -15.76222  25.74666  1      287
siesta:     -7.79530 -18.03059  23.21288  1      288
siesta:     -2.56853 -12.90620  23.20509  1      289
siesta:     -5.16154  -5.16154 -30.93527  1      290
siesta:     -5.14214 -10.31602 -25.82969  1      291
siesta:    -10.31602  -5.14214 -25.82969  1      292
siesta:     -7.69856  -7.69856 -28.36542  1      293
siesta:     -2.57708  -2.57708 -28.42900  1      294
siesta:     -2.56620  -7.73836 -23.24594  1      295
siesta:     -7.73836  -2.56620 -23.24594  1      296
siesta:    -10.30916 -10.30916 -20.65120  1      297
siesta:     -5.15263  -5.15263 -20.66507  1      298
siesta:     -5.15688 -10.31577 -15.47962  1      299
siesta:    -10.31577  -5.15688 -15.47962  1      300
siesta:     -7.73269  -7.73269 -18.07164  1      301
siesta:     -2.57487  -2.57487 -18.08101  1      302
siesta:     -2.57735  -7.73823 -12.90051  1      303
siesta:     -7.73823  -2.57735 -12.90051  1      304
siesta:    -10.31500 -10.31500 -10.31500  1      305
siesta:     -5.15881  -5.15881 -10.31988  1      306
siesta:     -5.15881 -10.31988  -5.15881  1      307
siesta:    -10.31988  -5.15881  -5.15881  1      308
siesta:     -7.73747  -7.73747  -7.73747  1      309
siesta:     -2.57947  -2.57947  -7.73979  1      310
siesta:     -2.57947  -7.73979  -2.57947  1      311
siesta:     -7.73979  -2.57947  -2.57947  1      312
siesta:    -10.32497 -10.32497   0.00605  1      313
siesta:     -5.16178  -5.16178   0.00133  1      314
siesta:     -5.16211 -10.32571   5.16211  1      315
siesta:    -10.32571  -5.16211   5.16211  1      316
siesta:     -7.74270  -7.74270   2.58248  1      317
siesta:     -2.58110  -2.58110   2.58110  1      318
siesta:     -2.58248  -7.74270   7.74270  1      319
siesta:     -7.74270  -2.58248   7.74270  1      320
siesta:    -10.32238 -10.32238  10.32238  1      321
siesta:     -5.16211  -5.16211  10.32571  1      322
siesta:     -5.16805 -10.32209  15.49203  1      323
siesta:    -10.32209  -5.16805  15.49203  1      324
siesta:     -7.74332  -7.74332  12.90618  1      325
siesta:     -2.57886  -2.57886  12.90349  1      326
siesta:     -2.57571  -7.73671  18.05730  1      327
siesta:     -7.73671  -2.57571  18.05730  1      328
siesta:    -10.34757 -10.34757  20.67804  1      329
siesta:     -5.15543  -5.15543  20.63260  1      330
siesta:     -5.09066 -10.25197  25.72214  1      331
siesta:    -10.25197  -5.09066  25.72214  1      332
siesta:     -7.73659  -7.73659  23.19122  1      333
siesta:     -2.58915  -2.58915  23.25634  1      334
siesta:     -2.60009  -7.75714  28.41041  1      335
siesta:     -7.75714  -2.60009  28.41041  1      336
siesta:     -5.48376  -5.48376  30.89012  1      337
siesta:    -10.64285   0.31694 -30.88067  1      338
siesta:     -5.48376   5.48376 -30.89012  1      339
siesta:     -5.16006   0.00568 -25.85437  1      340
siesta:    -10.25197   5.09066 -25.72214  1      341
siesta:     -7.75714   2.60009 -28.41041  1      342
siesta:     -2.60009   7.75714 -28.41041  1      343
siesta:     -2.58915   2.58915 -23.25634  1      344
siesta:     -7.73659   7.73659 -23.19122  1      345
siesta:    -10.31924  -0.00222 -20.63435  1      346
siesta:     -5.15543   5.15543 -20.63260  1      347
siesta:     -5.15456  -0.00413 -15.48554  1      348
siesta:    -10.32209   5.16805 -15.49203  1      349
siesta:     -7.73671   2.57571 -18.05730  1      350
siesta:     -2.57571   7.73671 -18.05730  1      351
siesta:     -2.57886   2.57886 -12.90349  1      352
siesta:     -7.74332   7.74332 -12.90618  1      353
siesta:    -10.32497   0.00605 -10.32497  1      354
siesta:     -5.16211   5.16211 -10.32571  1      355
siesta:     -5.16178   0.00133  -5.16178  1      356
siesta:    -10.32571   5.16211  -5.16211  1      357
siesta:     -7.74270   2.58248  -7.74270  1      358
siesta:     -2.58248   7.74270  -7.74270  1      359
siesta:     -2.58110   2.58110  -2.58110  1      360
siesta:     -7.74270   7.74270  -2.58248  1      361
siesta:    -10.32077  -0.00000   0.00000  1      362
siesta:     -5.16178   5.16178  -0.00133  1      363
siesta:     -5.16178  -0.00133   5.16178  1      364
siesta:    -10.31988   5.15881   5.15881  1      365
siesta:     -7.73979   2.57947   2.57947  1      366
siesta:     -2.57947   7.73979   2.57947  1      367
siesta:     -2.57947   2.57947   7.73979  1      368
siesta:     -7.73747   7.73747   7.73747  1      369
siesta:    -10.32497  -0.00605  10.32497  1      370
siesta:     -5.15881   5.15881  10.31988  1      371
siesta:     -5.15456   0.00413  15.48554  1      372
siesta:    -10.31577   5.15688  15.47962  1      373
siesta:     -7.73823   2.57735  12.90051  1      374
siesta:     -2.57735   7.73823  12.90051  1      375
siesta:     -2.57487   2.57487  18.08101  1      376
siesta:     -7.73269   7.73269  18.07164  1      377
siesta:    -10.31924   0.00222  20.63435  1      378
siesta:     -5.15263   5.15263  20.66507  1      379
siesta:     -5.16006  -0.00568  25.85437  1      380
siesta:    -10.31602   5.14214  25.82969  1      381
siesta:     -7.73836   2.56620  23.24594  1      382
siesta:     -2.56620   7.73836  23.24594  1      383
siesta:     -2.57708   2.57708  28.42900  1      384
siesta:     -7.69856   7.69856  28.36542  1      385
siesta:    -10.64285  -0.31694  30.88067  1      386
siesta:     -5.16154   5.16154  30.93527  1      387
siesta:     -5.09066  10.25197 -25.72214  1      388
siesta:    -10.60400  15.76222 -25.74666  1      389
siesta:     -2.56853  12.90620 -23.20509  1      390
siesta:     -7.79530  18.03059 -23.21288  1      391
siesta:    -10.34757  10.34757 -20.67804  1      392
siesta:     -5.18611  15.48179 -20.66246  1      393
siesta:     -5.16805  10.32209 -15.49203  1      394
siesta:    -10.32381  15.48338 -15.48338  1      395
siesta:     -7.75352  12.90126 -18.07504  1      396
siesta:     -2.61385  18.07080 -18.07080  1      397
siesta:     -2.59281  12.90484 -12.90484  1      398
siesta:     -7.75352  18.07504 -12.90126  1      399
siesta:    -10.32238  10.32238 -10.32238  1      400
siesta:     -5.16805  15.49203 -10.32209  1      401
siesta:     -5.16211  10.32571  -5.16211  1      402
siesta:    -10.32209  15.49203  -5.16805  1      403
siesta:     -7.74332  12.90618  -7.74332  1      404
siesta:     -2.57571  18.05730  -7.73671  1      405
siesta:     -2.57886  12.90349  -2.57886  1      406
siesta:     -7.73671  18.05730  -2.57571  1      407
siesta:    -10.32497  10.32497  -0.00605  1      408
siesta:     -5.15456  15.48554   0.00413  1      409
siesta:     -5.15881  10.31988   5.15881  1      410
siesta:    -10.31577  15.47962   5.15688  1      411
siesta:     -7.73823  12.90051   2.57735  1      412
siesta:     -2.57487  18.08101   2.57487  1      413
siesta:     -2.57735  12.90051   7.73823  1      414
siesta:     -7.73269  18.07164   7.73269  1      415
siesta:    -10.31500  10.31500  10.31500  1      416
siesta:     -5.15688  15.47962  10.31577  1      417
siesta:     -5.15688  10.31577  15.47962  1      418
siesta:    -10.31907  15.47090  15.47090  1      419
siesta:     -7.73836  12.89669  12.89669  1      420
siesta:     -2.57933  18.05551  12.90405  1      421
siesta:     -2.57933  12.90405  18.05551  1      422
siesta:     -7.71346  18.01616  18.01616  1      423
siesta:    -10.30916  10.30916  20.65120  1      424
siesta:     -5.16469  15.47607  20.63317  1      425
siesta:     -5.14214  10.31602  25.82969  1      426
siesta:     -7.68854  12.85379  23.19615  1      427
siesta:     -2.55687  18.03440  23.16201  1      428
siesta:     -2.51949  12.88773  28.35162  1      429
siesta:    -10.26659  20.60353 -20.60353  1      430
siesta:     -5.18611  20.66246 -15.48179  1      431
siesta:    -10.60400  25.74666 -15.76222  1      432
siesta:     -7.79530  23.21288 -18.03059  1      433
siesta:     -2.56853  23.20509 -12.90620  1      434
siesta:    -10.34757  20.67804 -10.34757  1      435
siesta:     -5.09066  25.72214 -10.25197  1      436
siesta:     -5.15543  20.63260  -5.15543  1      437
siesta:    -10.25197  25.72214  -5.09066  1      438
siesta:     -7.73659  23.19122  -7.73659  1      439
siesta:     -2.60009  28.41041  -7.75714  1      440
siesta:     -2.58915  23.25634  -2.58915  1      441
siesta:     -7.75714  28.41041  -2.60009  1      442
siesta:    -10.31924  20.63435   0.00222  1      443
siesta:     -5.16006  25.85437  -0.00568  1      444
siesta:     -5.15263  20.66507   5.15263  1      445
siesta:    -10.31602  25.82969   5.14214  1      446
siesta:     -7.73836  23.24594   2.56620  1      447
siesta:     -2.57708  28.42900   2.57708  1      448
siesta:     -2.56620  23.24594   7.73836  1      449
siesta:     -7.69856  28.36542   7.69856  1      450
siesta:    -10.30916  20.65120  10.30916  1      451
siesta:     -5.14214  25.82969  10.31602  1      452
siesta:     -5.16469  20.63317  15.47607  1      453
siesta:     -7.68854  23.19615  12.85379  1      454
siesta:     -2.51949  28.35162  12.88773  1      455
siesta:     -2.55687  23.16201  18.03440  1      456
siesta:     -5.48376  30.89012  -5.48376  1      457
siesta:    -10.64285  30.88067  -0.31694  1      458
siesta:     -5.16154  30.93527   5.16154  1      459
siesta:     -0.04933 -25.73433 -15.46254  1      460
siesta:      7.79530 -23.21288 -18.03059  1      461
siesta:      2.56853 -23.20509 -12.90620  1      462
siesta:      0.31694 -30.88067 -10.64285  1      463
siesta:      5.09066 -25.72214 -10.25197  1      464
siesta:      5.48376 -30.89012  -5.48376  1      465
siesta:      0.00568 -25.85437  -5.16006  1      466
siesta:      2.60009 -28.41041  -7.75714  1      467
siesta:      7.73659 -23.19122  -7.73659  1      468
siesta:      7.75714 -28.41041  -2.60009  1      469
siesta:      2.58915 -23.25634  -2.58915  1      470
siesta:     -0.00000 -30.95035  -0.00000  1      471
siesta:      5.16006 -25.85437  -0.00568  1      472
siesta:      5.16154 -30.93527   5.16154  1      473
siesta:     -0.00568 -25.85437   5.16006  1      474
siesta:      2.57708 -28.42900   2.57708  1      475
siesta:      7.73836 -23.24594   2.56620  1      476
siesta:      7.69856 -28.36542   7.69856  1      477
siesta:      2.56620 -23.24594   7.73836  1      478
siesta:     -0.31694 -30.88067  10.64285  1      479
siesta:      5.14214 -25.82969  10.31602  1      480
siesta:      0.04933 -25.73433  15.46254  1      481
siesta:      2.51949 -28.35162  12.88773  1      482
siesta:      7.68854 -23.19615  12.85379  1      483
siesta:      2.55687 -23.16201  18.03440  1      484
siesta:     -0.04933 -15.46254 -25.73433  1      485
siesta:      7.79530 -18.03059 -23.21288  1      486
siesta:      2.56853 -12.90620 -23.20509  1      487
siesta:     -0.02466 -20.60084 -20.60084  1      488
siesta:      5.18611 -15.48179 -20.66246  1      489
siesta:      5.18611 -20.66246 -15.48179  1      490
siesta:      0.02272 -15.48841 -15.48841  1      491
siesta:      2.61385 -18.07080 -18.07080  1      492
siesta:      7.75352 -12.90126 -18.07504  1      493
siesta:      7.75352 -18.07504 -12.90126  1      494
siesta:      2.59281 -12.90484 -12.90484  1      495
siesta:     -0.00222 -20.63435 -10.31924  1      496
siesta:      5.16805 -15.49203 -10.32209  1      497
siesta:      5.15543 -20.63260  -5.15543  1      498
siesta:     -0.00413 -15.48554  -5.15456  1      499
siesta:      2.57571 -18.05730  -7.73671  1      500
siesta:      7.74332 -12.90618  -7.74332  1      501
siesta:      7.73671 -18.05730  -2.57571  1      502
siesta:      2.57886 -12.90349  -2.57886  1      503
siesta:      0.00000 -20.68022   0.00000  1      504
siesta:      5.15456 -15.48554   0.00413  1      505
siesta:      5.15263 -20.66507   5.15263  1      506
siesta:      0.00413 -15.48554   5.15456  1      507
siesta:      2.57487 -18.08101   2.57487  1      508
siesta:      7.73823 -12.90051   2.57735  1      509
siesta:      7.73269 -18.07164   7.73269  1      510
siesta:      2.57735 -12.90051   7.73823  1      511
siesta:      0.00222 -20.63435  10.31924  1      512
siesta:      5.15688 -15.47962  10.31577  1      513
siesta:      5.16469 -20.63317  15.47607  1      514
siesta:     -0.02272 -15.48841  15.48841  1      515
siesta:      2.57933 -18.05551  12.90405  1      516
siesta:      7.73836 -12.89669  12.89669  1      517
siesta:      7.71346 -18.01616  18.01616  1      518
siesta:      2.57933 -12.90405  18.05551  1      519
siesta:      0.02466 -20.60084  20.60084  1      520
siesta:      5.16469 -15.47607  20.63317  1      521
siesta:      0.04933 -15.46254  25.73433  1      522
siesta:      2.55687 -18.03440  23.16201  1      523
siesta:      7.68854 -12.85379  23.19615  1      524
siesta:      2.51949 -12.88773  28.35162  1      525
siesta:      0.31694 -10.64285 -30.88067  1      526
siesta:      5.48376  -5.48376 -30.89012  1      527
siesta:      5.09066 -10.25197 -25.72214  1      528
siesta:      0.00568  -5.16006 -25.85437  1      529
siesta:      2.60009  -7.75714 -28.41041  1      530
siesta:      7.75714  -2.60009 -28.41041  1      531
siesta:      7.73659  -7.73659 -23.19122  1      532
siesta:      2.58915  -2.58915 -23.25634  1      533
siesta:     -0.00222 -10.31924 -20.63435  1      534
siesta:      5.15543  -5.15543 -20.63260  1      535
siesta:      5.16805 -10.32209 -15.49203  1      536
siesta:     -0.00413  -5.15456 -15.48554  1      537
siesta:      2.57571  -7.73671 -18.05730  1      538
siesta:      7.73671  -2.57571 -18.05730  1      539
siesta:      7.74332  -7.74332 -12.90618  1      540
siesta:      2.57886  -2.57886 -12.90349  1      541
siesta:      0.00605 -10.32497 -10.32497  1      542
siesta:      5.16211  -5.16211 -10.32571  1      543
siesta:      5.16211 -10.32571  -5.16211  1      544
siesta:      0.00133  -5.16178  -5.16178  1      545
siesta:      2.58248  -7.74270  -7.74270  1      546
siesta:      7.74270  -2.58248  -7.74270  1      547
siesta:      7.74270  -7.74270  -2.58248  1      548
siesta:      2.58110  -2.58110  -2.58110  1      549
siesta:     -0.00000 -10.32077   0.00000  1      550
siesta:      5.16178  -5.16178  -0.00133  1      551
siesta:      5.15881 -10.31988   5.15881  1      552
siesta:     -0.00133  -5.16178   5.16178  1      553
siesta:      2.57947  -7.73979   2.57947  1      554
siesta:      7.73979  -2.57947   2.57947  1      555
siesta:      7.73747  -7.73747   7.73747  1      556
siesta:      2.57947  -2.57947   7.73979  1      557
siesta:     -0.00605 -10.32497  10.32497  1      558
siesta:      5.15881  -5.15881  10.31988  1      559
siesta:      5.15688 -10.31577  15.47962  1      560
siesta:      0.00413  -5.15456  15.48554  1      561
siesta:      2.57735  -7.73823  12.90051  1      562
siesta:      7.73823  -2.57735  12.90051  1      563
siesta:      7.73269  -7.73269  18.07164  1      564
siesta:      2.57487  -2.57487  18.08101  1      565
siesta:      0.00222 -10.31924  20.63435  1      566
siesta:      5.15263  -5.15263  20.66507  1      567
siesta:      5.14214 -10.31602  25.82969  1      568
siesta:     -0.00568  -5.16006  25.85437  1      569
siesta:      2.56620  -7.73836  23.24594  1      570
siesta:      7.73836  -2.56620  23.24594  1      571
siesta:      7.69856  -7.69856  28.36542  1      572
siesta:      2.57708  -2.57708  28.42900  1      573
siesta:     -0.31694 -10.64285  30.88067  1      574
siesta:      5.16154  -5.16154  30.93527  1      575
siesta:     -0.00000  -0.00000 -30.95035  1      576
siesta:      5.16154   5.16154 -30.93527  1      577
siesta:      5.16006  -0.00568 -25.85437  1      578
siesta:     -0.00568   5.16006 -25.85437  1      579
siesta:      2.57708   2.57708 -28.42900  1      580
siesta:      7.69856   7.69856 -28.36542  1      581
siesta:      7.73836   2.56620 -23.24594  1      582
siesta:      2.56620   7.73836 -23.24594  1      583
siesta:      0.00000   0.00000 -20.68022  1      584
siesta:      5.15263   5.15263 -20.66507  1      585
siesta:      5.15456   0.00413 -15.48554  1      586
siesta:      0.00413   5.15456 -15.48554  1      587
siesta:      2.57487   2.57487 -18.08101  1      588
siesta:      7.73269   7.73269 -18.07164  1      589
siesta:      7.73823   2.57735 -12.90051  1      590
siesta:      2.57735   7.73823 -12.90051  1      591
siesta:     -0.00000   0.00000 -10.32077  1      592
siesta:      5.15881   5.15881 -10.31988  1      593
siesta:      5.16178  -0.00133  -5.16178  1      594
siesta:     -0.00133   5.16178  -5.16178  1      595
siesta:      2.57947   2.57947  -7.73979  1      596
siesta:      7.73747   7.73747  -7.73747  1      597
siesta:      7.73979   2.57947  -2.57947  1      598
siesta:      2.57947   7.73979  -2.57947  1      599
siesta:     -0.00000   0.00000  -0.00000  1      600
siesta:      5.16178   5.16178   0.00133  1      601
siesta:      5.16178   0.00133   5.16178  1      602
siesta:      0.00133   5.16178   5.16178  1      603
siesta:      2.58110   2.58110   2.58110  1      604
siesta:      7.74270   7.74270   2.58248  1      605
siesta:      7.74270   2.58248   7.74270  1      606
siesta:      2.58248   7.74270   7.74270  1      607
siesta:     -0.00000  -0.00000  10.32077  1      608
siesta:      5.16211   5.16211  10.32571  1      609
siesta:      5.15456  -0.00413  15.48554  1      610
siesta:     -0.00413   5.15456  15.48554  1      611
siesta:      2.57886   2.57886  12.90349  1      612
siesta:      7.74332   7.74332  12.90618  1      613
siesta:      7.73671   2.57571  18.05730  1      614
siesta:      2.57571   7.73671  18.05730  1      615
siesta:     -0.00000  -0.00000  20.68022  1      616
siesta:      5.15543   5.15543  20.63260  1      617
siesta:      5.16006   0.00568  25.85437  1      618
siesta:      0.00568   5.16006  25.85437  1      619
siesta:      2.58915   2.58915  23.25634  1      620
siesta:      7.73659   7.73659  23.19122  1      621
siesta:      7.75714   2.60009  28.41041  1      622
siesta:      2.60009   7.75714  28.41041  1      623
siesta:     -0.00000  -0.00000  30.95035  1      624
siesta:      5.48376   5.48376  30.89012  1      625
siesta:     -0.31694  10.64285 -30.88067  1      626
siesta:      5.14214  10.31602 -25.82969  1      627
siesta:      0.04933  15.46254 -25.73433  1      628
siesta:      2.51949  12.88773 -28.35162  1      629
siesta:      7.68854  12.85379 -23.19615  1      630
siesta:      2.55687  18.03440 -23.16201  1      631
siesta:      0.00222  10.31924 -20.63435  1      632
siesta:      5.16469  15.47607 -20.63317  1      633
siesta:      5.15688  10.31577 -15.47962  1      634
siesta:     -0.02272  15.48841 -15.48841  1      635
siesta:      2.57933  12.90405 -18.05551  1      636
siesta:      7.71346  18.01616 -18.01616  1      637
siesta:      7.73836  12.89669 -12.89669  1      638
siesta:      2.57933  18.05551 -12.90405  1      639
siesta:     -0.00605  10.32497 -10.32497  1      640
siesta:      5.15688  15.47962 -10.31577  1      641
siesta:      5.15881  10.31988  -5.15881  1      642
siesta:      0.00413  15.48554  -5.15456  1      643
siesta:      2.57735  12.90051  -7.73823  1      644
siesta:      7.73269  18.07164  -7.73269  1      645
siesta:      7.73823  12.90051  -2.57735  1      646
siesta:      2.57487  18.08101  -2.57487  1      647
siesta:     -0.00000  10.32077   0.00000  1      648
siesta:      5.15456  15.48554  -0.00413  1      649
siesta:      5.16211  10.32571   5.16211  1      650
siesta:     -0.00413  15.48554   5.15456  1      651
siesta:      2.57886  12.90349   2.57886  1      652
siesta:      7.73671  18.05730   2.57571  1      653
siesta:      7.74332  12.90618   7.74332  1      654
siesta:      2.57571  18.05730   7.73671  1      655
siesta:      0.00605  10.32497  10.32497  1      656
siesta:      5.16805  15.49203  10.32209  1      657
siesta:      5.16805  10.32209  15.49203  1      658
siesta:      0.02272  15.48841  15.48841  1      659
siesta:      2.59281  12.90484  12.90484  1      660
siesta:      7.75352  18.07504  12.90126  1      661
siesta:      7.75352  12.90126  18.07504  1      662
siesta:      2.61385  18.07080  18.07080  1      663
siesta:     -0.00222  10.31924  20.63435  1      664
siesta:      5.18611  15.48179  20.66246  1      665
siesta:      5.09066  10.25197  25.72214  1      666
siesta:     -0.04933  15.46254  25.73433  1      667
siesta:      2.56853  12.90620  23.20509  1      668
siesta:      7.79530  18.03059  23.21288  1      669
siesta:      0.31694  10.64285  30.88067  1      670
siesta:      0.02466  20.60084 -20.60084  1      671
siesta:      5.16469  20.63317 -15.47607  1      672
siesta:      0.04933  25.73433 -15.46254  1      673
siesta:      2.55687  23.16201 -18.03440  1      674
siesta:      7.68854  23.19615 -12.85379  1      675
siesta:      2.51949  28.35162 -12.88773  1      676
siesta:      0.00222  20.63435 -10.31924  1      677
siesta:      5.14214  25.82969 -10.31602  1      678
siesta:      5.15263  20.66507  -5.15263  1      679
siesta:     -0.00568  25.85437  -5.16006  1      680
siesta:      2.56620  23.24594  -7.73836  1      681
siesta:      7.69856  28.36542  -7.69856  1      682
siesta:      7.73836  23.24594  -2.56620  1      683
siesta:      2.57708  28.42900  -2.57708  1      684
siesta:     -0.00000  20.68022   0.00000  1      685
siesta:      5.16006  25.85437   0.00568  1      686
siesta:      5.15543  20.63260   5.15543  1      687
siesta:      0.00568  25.85437   5.16006  1      688
siesta:      2.58915  23.25634   2.58915  1      689
siesta:      7.75714  28.41041   2.60009  1      690
siesta:      7.73659  23.19122   7.73659  1      691
siesta:      2.60009  28.41041   7.75714  1      692
siesta:     -0.00222  20.63435  10.31924  1      693
siesta:      5.09066  25.72214  10.25197  1      694
siesta:      5.18611  20.66246  15.48179  1      695
siesta:     -0.04933  25.73433  15.46254  1      696
siesta:      2.56853  23.20509  12.90620  1      697
siesta:      7.79530  23.21288  18.03059  1      698
siesta:     -0.02466  20.60084  20.60084  1      699
siesta:     -0.31694  30.88067 -10.64285  1      700
siesta:      5.16154  30.93527  -5.16154  1      701
siesta:      0.00000  30.95035  -0.00000  1      702
siesta:      5.48376  30.89012   5.48376  1      703
siesta:      0.31694  30.88067  10.64285  1      704
siesta:     10.60400 -25.74666 -15.76222  1      705
siesta:     12.94085 -23.25591 -12.94085  1      706
siesta:     15.76222 -25.74666 -10.60400  1      707
siesta:     10.25197 -25.72214  -5.09066  1      708
siesta:     18.03059 -23.21288  -7.79530  1      709
siesta:     12.90620 -23.20509  -2.56853  1      710
siesta:     10.64285 -30.88067  -0.31694  1      711
siesta:     15.46254 -25.73433   0.04933  1      712
siesta:     10.31602 -25.82969   5.14214  1      713
siesta:     12.88773 -28.35162   2.51949  1      714
siesta:     18.03440 -23.16201   2.55687  1      715
siesta:     12.85379 -23.19615   7.68854  1      716
siesta:     10.60400 -15.76222 -25.74666  1      717
siesta:     12.94085 -12.94085 -23.25591  1      718
siesta:     10.26659 -20.60353 -20.60353  1      719
siesta:     15.44909 -15.44909 -20.58396  1      720
siesta:     15.44909 -20.58396 -15.44909  1      721
siesta:     10.32381 -15.48338 -15.48338  1      722
siesta:     12.89307 -18.06184 -18.06184  1      723
siesta:     18.06184 -12.89307 -18.06184  1      724
siesta:     18.06184 -18.06184 -12.89307  1      725
siesta:     12.90118 -12.90118 -12.90118  1      726
siesta:     10.34757 -20.67804 -10.34757  1      727
siesta:     15.48338 -15.48338 -10.32381  1      728
siesta:     15.48179 -20.66246  -5.18611  1      729
siesta:     10.32209 -15.49203  -5.16805  1      730
siesta:     12.90126 -18.07504  -7.75352  1      731
siesta:     18.07504 -12.90126  -7.75352  1      732
siesta:     18.07080 -18.07080  -2.61385  1      733
siesta:     12.90484 -12.90484  -2.59281  1      734
siesta:     10.31924 -20.63435   0.00222  1      735
siesta:     15.48841 -15.48841  -0.02272  1      736
siesta:     15.47607 -20.63317   5.16469  1      737
siesta:     10.31577 -15.47962   5.15688  1      738
siesta:     12.90405 -18.05551   2.57933  1      739
siesta:     18.05551 -12.90405   2.57933  1      740
siesta:     18.01616 -18.01616   7.71346  1      741
siesta:     12.89669 -12.89669   7.73836  1      742
siesta:     10.30916 -20.65120  10.30916  1      743
siesta:     15.47090 -15.47090  10.31907  1      744
siesta:     10.31907 -15.47090  15.47090  1      745
siesta:     12.85398 -18.02524  12.85398  1      746
siesta:     18.02524 -12.85398  12.85398  1      747
siesta:     12.85398 -12.85398  18.02524  1      748
siesta:     15.76222 -10.60400 -25.74666  1      749
siesta:     10.25197  -5.09066 -25.72214  1      750
siesta:     18.03059  -7.79530 -23.21288  1      751
siesta:     12.90620  -2.56853 -23.20509  1      752
siesta:     10.34757 -10.34757 -20.67804  1      753
siesta:     15.48179  -5.18611 -20.66246  1      754
siesta:     15.48338 -10.32381 -15.48338  1      755
siesta:     10.32209  -5.16805 -15.49203  1      756
siesta:     12.90126  -7.75352 -18.07504  1      757
siesta:     18.07080  -2.61385 -18.07080  1      758
siesta:     18.07504  -7.75352 -12.90126  1      759
siesta:     12.90484  -2.59281 -12.90484  1      760
siesta:     10.32238 -10.32238 -10.32238  1      761
siesta:     15.49203  -5.16805 -10.32209  1      762
siesta:     15.49203 -10.32209  -5.16805  1      763
siesta:     10.32571  -5.16211  -5.16211  1      764
siesta:     12.90618  -7.74332  -7.74332  1      765
siesta:     18.05730  -2.57571  -7.73671  1      766
siesta:     18.05730  -7.73671  -2.57571  1      767
siesta:     12.90349  -2.57886  -2.57886  1      768
siesta:     10.32497 -10.32497  -0.00605  1      769
siesta:     15.48554  -5.15456   0.00413  1      770
siesta:     15.47962 -10.31577   5.15688  1      771
siesta:     10.31988  -5.15881   5.15881  1      772
siesta:     12.90051  -7.73823   2.57735  1      773
siesta:     18.08101  -2.57487   2.57487  1      774
siesta:     18.07164  -7.73269   7.73269  1      775
siesta:     12.90051  -2.57735   7.73823  1      776
siesta:     10.31500 -10.31500  10.31500  1      777
siesta:     15.47962  -5.15688  10.31577  1      778
siesta:     15.47090 -10.31907  15.47090  1      779
siesta:     10.31577  -5.15688  15.47962  1      780
siesta:     12.89669  -7.73836  12.89669  1      781
siesta:     18.05551  -2.57933  12.90405  1      782
siesta:     18.01616  -7.71346  18.01616  1      783
siesta:     12.90405  -2.57933  18.05551  1      784
siesta:     10.30916 -10.30916  20.65120  1      785
siesta:     15.47607  -5.16469  20.63317  1      786
siesta:     10.31602  -5.14214  25.82969  1      787
siesta:     12.85379  -7.68854  23.19615  1      788
siesta:     18.03440  -2.55687  23.16201  1      789
siesta:     12.88773  -2.51949  28.35162  1      790
siesta:     10.64285  -0.31694 -30.88067  1      791
siesta:     15.46254   0.04933 -25.73433  1      792
siesta:     10.31602   5.14214 -25.82969  1      793
siesta:     12.88773   2.51949 -28.35162  1      794
siesta:     18.03440   2.55687 -23.16201  1      795
siesta:     12.85379   7.68854 -23.19615  1      796
siesta:     10.31924   0.00222 -20.63435  1      797
siesta:     15.47607   5.16469 -20.63317  1      798
siesta:     15.48841  -0.02272 -15.48841  1      799
siesta:     10.31577   5.15688 -15.47962  1      800
siesta:     12.90405   2.57933 -18.05551  1      801
siesta:     18.01616   7.71346 -18.01616  1      802
siesta:     18.05551   2.57933 -12.90405  1      803
siesta:     12.89669   7.73836 -12.89669  1      804
siesta:     10.32497  -0.00605 -10.32497  1      805
siesta:     15.47962   5.15688 -10.31577  1      806
siesta:     15.48554   0.00413  -5.15456  1      807
siesta:     10.31988   5.15881  -5.15881  1      808
siesta:     12.90051   2.57735  -7.73823  1      809
siesta:     18.07164   7.73269  -7.73269  1      810
siesta:     18.08101   2.57487  -2.57487  1      811
siesta:     12.90051   7.73823  -2.57735  1      812
siesta:     10.32077  -0.00000   0.00000  1      813
siesta:     15.48554   5.15456  -0.00413  1      814
siesta:     15.48554  -0.00413   5.15456  1      815
siesta:     10.32571   5.16211   5.16211  1      816
siesta:     12.90349   2.57886   2.57886  1      817
siesta:     18.05730   7.73671   2.57571  1      818
siesta:     18.05730   2.57571   7.73671  1      819
siesta:     12.90618   7.74332   7.74332  1      820
siesta:     10.32497   0.00605  10.32497  1      821
siesta:     15.49203   5.16805  10.32209  1      822
siesta:     15.48841   0.02272  15.48841  1      823
siesta:     10.32209   5.16805  15.49203  1      824
siesta:     12.90484   2.59281  12.90484  1      825
siesta:     18.07504   7.75352  12.90126  1      826
siesta:     18.07080   2.61385  18.07080  1      827
siesta:     12.90126   7.75352  18.07504  1      828
siesta:     10.31924  -0.00222  20.63435  1      829
siesta:     15.48179   5.18611  20.66246  1      830
siesta:     15.46254  -0.04933  25.73433  1      831
siesta:     10.25197   5.09066  25.72214  1      832
siesta:     12.90620   2.56853  23.20509  1      833
siesta:     18.03059   7.79530  23.21288  1      834
siesta:     10.64285   0.31694  30.88067  1      835
siesta:     10.30916  10.30916 -20.65120  1      836
siesta:     15.47090  10.31907 -15.47090  1      837
siesta:     10.31907  15.47090 -15.47090  1      838
siesta:     12.85398  12.85398 -18.02524  1      839
siesta:     18.02524  12.85398 -12.85398  1      840
siesta:     12.85398  18.02524 -12.85398  1      841
siesta:     10.31500  10.31500 -10.31500  1      842
siesta:     15.47090  15.47090 -10.31907  1      843
siesta:     15.47962  10.31577  -5.15688  1      844
siesta:     10.31577  15.47962  -5.15688  1      845
siesta:     12.89669  12.89669  -7.73836  1      846
siesta:     18.01616  18.01616  -7.71346  1      847
siesta:     18.05551  12.90405  -2.57933  1      848
siesta:     12.90405  18.05551  -2.57933  1      849
siesta:     10.32497  10.32497   0.00605  1      850
siesta:     15.48841  15.48841   0.02272  1      851
siesta:     15.49203  10.32209   5.16805  1      852
siesta:     10.32209  15.49203   5.16805  1      853
siesta:     12.90484  12.90484   2.59281  1      854
siesta:     18.07080  18.07080   2.61385  1      855
siesta:     18.07504  12.90126   7.75352  1      856
siesta:     12.90126  18.07504   7.75352  1      857
siesta:     10.32238  10.32238  10.32238  1      858
siesta:     15.48338  15.48338  10.32381  1      859
siesta:     15.48338  10.32381  15.48338  1      860
siesta:     10.32381  15.48338  15.48338  1      861
siesta:     12.90118  12.90118  12.90118  1      862
siesta:     18.06184  18.06184  12.89307  1      863
siesta:     18.06184  12.89307  18.06184  1      864
siesta:     12.89307  18.06184  18.06184  1      865
siesta:     10.34757  10.34757  20.67804  1      866
siesta:     15.44909  15.44909  20.58396  1      867
siesta:     15.76222  10.60400  25.74666  1      868
siesta:     10.60400  15.76222  25.74666  1      869
siesta:     12.94085  12.94085  23.25591  1      870
siesta:     10.30916  20.65120 -10.30916  1      871
siesta:     15.47607  20.63317  -5.16469  1      872
siesta:     10.31602  25.82969  -5.14214  1      873
siesta:     12.85379  23.19615  -7.68854  1      874
siesta:     18.03440  23.16201  -2.55687  1      875
siesta:     12.88773  28.35162  -2.51949  1      876
siesta:     10.31924  20.63435  -0.00222  1      877
siesta:     15.46254  25.73433  -0.04933  1      878
siesta:     15.48179  20.66246   5.18611  1      879
siesta:     10.25197  25.72214   5.09066  1      880
siesta:     12.90620  23.20509   2.56853  1      881
siesta:     18.03059  23.21288   7.79530  1      882
siesta:     10.34757  20.67804  10.34757  1      883
siesta:     15.76222  25.74666  10.60400  1      884
siesta:     15.44909  20.58396  15.44909  1      885
siesta:     10.60400  25.74666  15.76222  1      886
siesta:     12.94085  23.25591  12.94085  1      887
siesta:     10.26659  20.60353  20.60353  1      888
siesta:     10.64285  30.88067   0.31694  1      889
siesta:     20.58396 -15.44909 -15.44909  1      890
siesta:     23.25591 -12.94085 -12.94085  1      891
siesta:     20.60353 -20.60353 -10.26659  1      892
siesta:     25.74666 -15.76222 -10.60400  1      893
siesta:     20.66246 -15.48179  -5.18611  1      894
siesta:     23.21288 -18.03059  -7.79530  1      895
siesta:     23.20509 -12.90620  -2.56853  1      896
siesta:     20.60084 -20.60084   0.02466  1      897
siesta:     25.73433 -15.46254   0.04933  1      898
siesta:     20.63317 -15.47607   5.16469  1      899
siesta:     23.16201 -18.03440   2.55687  1      900
siesta:     28.35162 -12.88773   2.51949  1      901
siesta:     23.19615 -12.85379   7.68854  1      902
siesta:     20.60353 -10.26659 -20.60353  1      903
siesta:     25.74666 -10.60400 -15.76222  1      904
siesta:     20.66246  -5.18611 -15.48179  1      905
siesta:     23.21288  -7.79530 -18.03059  1      906
siesta:     23.20509  -2.56853 -12.90620  1      907
siesta:     20.67804 -10.34757 -10.34757  1      908
siesta:     25.72214  -5.09066 -10.25197  1      909
siesta:     25.72214 -10.25197  -5.09066  1      910
siesta:     20.63260  -5.15543  -5.15543  1      911
siesta:     23.19122  -7.73659  -7.73659  1      912
siesta:     28.41041  -2.60009  -7.75714  1      913
siesta:     28.41041  -7.75714  -2.60009  1      914
siesta:     23.25634  -2.58915  -2.58915  1      915
siesta:     20.63435 -10.31924   0.00222  1      916
siesta:     25.85437  -5.16006  -0.00568  1      917
siesta:     25.82969 -10.31602   5.14214  1      918
siesta:     20.66507  -5.15263   5.15263  1      919
siesta:     23.24594  -7.73836   2.56620  1      920
siesta:     28.42900  -2.57708   2.57708  1      921
siesta:     28.36542  -7.69856   7.69856  1      922
siesta:     23.24594  -2.56620   7.73836  1      923
siesta:     20.65120 -10.30916  10.30916  1      924
siesta:     25.82969  -5.14214  10.31602  1      925
siesta:     20.63317  -5.16469  15.47607  1      926
siesta:     23.19615  -7.68854  12.85379  1      927
siesta:     28.35162  -2.51949  12.88773  1      928
siesta:     23.16201  -2.55687  18.03440  1      929
siesta:     20.60084   0.02466 -20.60084  1      930
siesta:     25.73433   0.04933 -15.46254  1      931
siesta:     20.63317   5.16469 -15.47607  1      932
siesta:     23.16201   2.55687 -18.03440  1      933
siesta:     28.35162   2.51949 -12.88773  1      934
siesta:     23.19615   7.68854 -12.85379  1      935
siesta:     20.63435   0.00222 -10.31924  1      936
siesta:     25.82969   5.14214 -10.31602  1      937
siesta:     25.85437  -0.00568  -5.16006  1      938
siesta:     20.66507   5.15263  -5.15263  1      939
siesta:     23.24594   2.56620  -7.73836  1      940
siesta:     28.36542   7.69856  -7.69856  1      941
siesta:     28.42900   2.57708  -2.57708  1      942
siesta:     23.24594   7.73836  -2.56620  1      943
siesta:     20.68022   0.00000  -0.00000  1      944
siesta:     25.85437   5.16006   0.00568  1      945
siesta:     25.85437   0.00568   5.16006  1      946
siesta:     20.63260   5.15543   5.15543  1      947
siesta:     23.25634   2.58915   2.58915  1      948
siesta:     28.41041   7.75714   2.60009  1      949
siesta:     28.41041   2.60009   7.75714  1      950
siesta:     23.19122   7.73659   7.73659  1      951
siesta:     20.63435  -0.00222  10.31924  1      952
siesta:     25.72214   5.09066  10.25197  1      953
siesta:     25.73433  -0.04933  15.46254  1      954
siesta:     20.66246   5.18611  15.48179  1      955
siesta:     23.20509   2.56853  12.90620  1      956
siesta:     23.21288   7.79530  18.03059  1      957
siesta:     20.60084  -0.02466  20.60084  1      958
siesta:     20.65120  10.30916 -10.30916  1      959
siesta:     25.82969  10.31602  -5.14214  1      960
siesta:     20.63317  15.47607  -5.16469  1      961
siesta:     23.19615  12.85379  -7.68854  1      962
siesta:     28.35162  12.88773  -2.51949  1      963
siesta:     23.16201  18.03440  -2.55687  1      964
siesta:     20.63435  10.31924  -0.00222  1      965
siesta:     25.73433  15.46254  -0.04933  1      966
siesta:     25.72214  10.25197   5.09066  1      967
siesta:     20.66246  15.48179   5.18611  1      968
siesta:     23.20509  12.90620   2.56853  1      969
siesta:     23.21288  18.03059   7.79530  1      970
siesta:     20.67804  10.34757  10.34757  1      971
siesta:     25.74666  15.76222  10.60400  1      972
siesta:     25.74666  10.60400  15.76222  1      973
siesta:     20.58396  15.44909  15.44909  1      974
siesta:     23.25591  12.94085  12.94085  1      975
siesta:     20.60353  10.26659  20.60353  1      976
siesta:     20.60084  20.60084  -0.02466  1      977
siesta:     20.60353  20.60353  10.26659  1      978
siesta:     30.89012  -5.48376  -5.48376  1      979
siesta:     30.88067 -10.64285  -0.31694  1      980
siesta:     30.93527  -5.16154   5.16154  1      981
siesta:     30.88067  -0.31694 -10.64285  1      982
siesta:     30.93527   5.16154  -5.16154  1      983
siesta:     30.95035  -0.00000  -0.00000  1      984
siesta:     30.89012   5.48376   5.48376  1      985
siesta:     30.88067   0.31694  10.64285  1      986
siesta:     30.88067  10.64285   0.31694  1      987
siesta:    -24.83304 -14.49621  -9.33098  2      988
siesta:    -24.79701 -19.67707  -4.19893  2      989
siesta:    -29.99150 -14.52876  -4.15920  2      990
siesta:    -27.36154 -17.10418   1.60302  2      991
siesta:    -24.84127 -19.67097   6.14352  2      992
siesta:    -24.79701  -4.19893 -19.67707  2      993
siesta:    -24.83304  -9.33098 -14.49621  2      994
siesta:    -29.99150  -4.15920 -14.52876  2      995
siesta:    -30.00291  -9.34080  -9.34080  2      996
siesta:    -27.38033 -11.88320   6.72581  2      997
siesta:    -27.38033  -6.72581  11.88320  2      998
siesta:    -24.84127  -6.14352  19.67097  2      999
siesta:    -27.36154   1.60302 -17.10418  2     1000
siesta:    -24.84127   6.14352 -19.67097  2     1001
siesta:    -27.38033   6.72581 -11.88320  2     1002
siesta:    -30.00291   9.34080   9.34080  2     1003
siesta:    -27.36154  -1.60302  17.10418  2     1004
siesta:    -29.99150   4.15920  14.52876  2     1005
siesta:    -24.83304   9.33098  14.49621  2     1006
siesta:    -24.79701   4.19893  19.67707  2     1007
siesta:    -27.38033  11.88320  -6.72581  2     1008
siesta:    -24.84127  19.67097  -6.14352  2     1009
siesta:    -27.36154  17.10418  -1.60302  2     1010
siesta:    -29.99150  14.52876   4.15920  2     1011
siesta:    -24.79701  19.67707   4.19893  2     1012
siesta:    -24.83304  14.49621   9.33098  2     1013
siesta:    -14.49621 -24.83304  -9.33098  2     1014
siesta:    -14.52876 -29.99150  -4.15920  2     1015
siesta:    -19.67707 -24.79701  -4.19893  2     1016
siesta:    -17.10418 -27.36154   1.60302  2     1017
siesta:    -19.67097 -24.84127   6.14352  2     1018
siesta:    -14.49613 -14.49613 -19.66259  2     1019
siesta:    -14.49613 -19.66259 -14.49613  2     1020
siesta:    -19.66259 -14.49613 -14.49613  2     1021
siesta:    -19.65571 -19.65571  -9.35578  2     1022
siesta:    -22.24958 -22.24958   1.59800  2     1023
siesta:    -22.23496 -22.23496  11.92532  2     1024
siesta:    -17.10019 -22.20348  17.10019  2     1025
siesta:    -22.20348 -17.10019  17.10019  2     1026
siesta:    -17.10019 -17.10019  22.20348  2     1027
siesta:    -14.52876  -4.15920 -29.99150  2     1028
siesta:    -14.49621  -9.33098 -24.83304  2     1029
siesta:    -19.67707  -4.19893 -24.79701  2     1030
siesta:    -19.65571  -9.35578 -19.65571  2     1031
siesta:    -22.23496 -11.92532  22.23496  2     1032
siesta:    -19.67097  -6.14352  24.84127  2     1033
siesta:    -17.10418   1.60302 -27.36154  2     1034
siesta:    -19.67097   6.14352 -24.84127  2     1035
siesta:    -22.24958   1.59800 -22.24958  2     1036
siesta:    -19.65571   9.35578  19.65571  2     1037
siesta:    -22.24958  -1.59800  22.24958  2     1038
siesta:    -17.10418  -1.60302  27.36154  2     1039
siesta:    -19.67707   4.19893  24.79701  2     1040
siesta:    -14.49621   9.33098  24.83304  2     1041
siesta:    -14.52876   4.15920  29.99150  2     1042
siesta:    -22.23496  11.92532 -22.23496  2     1043
siesta:    -17.10019  17.10019 -22.20348  2     1044
siesta:    -22.20348  17.10019 -17.10019  2     1045
siesta:    -19.65571  19.65571   9.35578  2     1046
siesta:    -19.66259  14.49613  14.49613  2     1047
siesta:    -14.49613  19.66259  14.49613  2     1048
siesta:    -14.49613  14.49613  19.66259  2     1049
siesta:    -17.10019  22.20348 -17.10019  2     1050
siesta:    -22.23496  22.23496 -11.92532  2     1051
siesta:    -19.67097  24.84127  -6.14352  2     1052
siesta:    -22.24958  22.24958  -1.59800  2     1053
siesta:    -17.10418  27.36154  -1.60302  2     1054
siesta:    -19.67707  24.79701   4.19893  2     1055
siesta:    -14.52876  29.99150   4.15920  2     1056
siesta:    -14.49621  24.83304   9.33098  2     1057
siesta:     -4.19893 -24.79701 -19.67707  2     1058
siesta:     -4.15920 -29.99150 -14.52876  2     1059
siesta:     -9.33098 -24.83304 -14.49621  2     1060
siesta:     -9.34080 -30.00291  -9.34080  2     1061
siesta:    -11.88320 -27.38033   6.72581  2     1062
siesta:     -6.72581 -27.38033  11.88320  2     1063
siesta:     -6.14352 -24.84127  19.67097  2     1064
siesta:     -4.15920 -14.52876 -29.99150  2     1065
siesta:     -4.19893 -19.67707 -24.79701  2     1066
siesta:     -9.33098 -14.49621 -24.83304  2     1067
siesta:     -9.35578 -19.65571 -19.65571  2     1068
siesta:    -11.92532 -22.23496  22.23496  2     1069
siesta:     -6.14352 -19.67097  24.84127  2     1070
siesta:     -9.34080  -9.34080 -30.00291  2     1071
siesta:     -6.72581 -11.88320  27.38033  2     1072
siesta:    -11.88320  -6.72581  27.38033  2     1073
siesta:    -11.88320   6.72581 -27.38033  2     1074
siesta:     -9.34080   9.34080  30.00291  2     1075
siesta:     -6.72581  11.88320 -27.38033  2     1076
siesta:     -6.14352  19.67097 -24.84127  2     1077
siesta:     -9.35578  19.65571  19.65571  2     1078
siesta:     -9.33098  14.49621  24.83304  2     1079
siesta:     -4.19893  19.67707  24.79701  2     1080
siesta:     -4.15920  14.52876  29.99150  2     1081
siesta:    -11.92532  22.23496 -22.23496  2     1082
siesta:     -6.14352  24.84127 -19.67097  2     1083
siesta:     -6.72581  27.38033 -11.88320  2     1084
siesta:    -11.88320  27.38033  -6.72581  2     1085
siesta:     -9.34080  30.00291   9.34080  2     1086
siesta:     -9.33098  24.83304  14.49621  2     1087
siesta:     -4.15920  29.99150  14.52876  2     1088
siesta:     -4.19893  24.79701  19.67707  2     1089
siesta:      1.60302 -27.36154 -17.10418  2     1090
siesta:      6.14352 -24.84127 -19.67097  2     1091
siesta:      6.72581 -27.38033 -11.88320  2     1092
siesta:      9.34080 -30.00291   9.34080  2     1093
siesta:     -1.60302 -27.36154  17.10418  2     1094
siesta:      4.15920 -29.99150  14.52876  2     1095
siesta:      9.33098 -24.83304  14.49621  2     1096
siesta:      4.19893 -24.79701  19.67707  2     1097
siesta:      1.60302 -17.10418 -27.36154  2     1098
siesta:      6.14352 -19.67097 -24.84127  2     1099
siesta:      1.59800 -22.24958 -22.24958  2     1100
siesta:      9.35578 -19.65571  19.65571  2     1101
siesta:     -1.59800 -22.24958  22.24958  2     1102
siesta:     -1.60302 -17.10418  27.36154  2     1103
siesta:      4.19893 -19.67707  24.79701  2     1104
siesta:      9.33098 -14.49621  24.83304  2     1105
siesta:      4.15920 -14.52876  29.99150  2     1106
siesta:      6.72581 -11.88320 -27.38033  2     1107
siesta:      9.34080  -9.34080  30.00291  2     1108
siesta:      9.34080   9.34080 -30.00291  2     1109
siesta:     -1.60302  17.10418 -27.36154  2     1110
siesta:      4.15920  14.52876 -29.99150  2     1111
siesta:      9.33098  14.49621 -24.83304  2     1112
siesta:      4.19893  19.67707 -24.79701  2     1113
siesta:      9.35578  19.65571 -19.65571  2     1114
siesta:      6.72581  11.88320  27.38033  2     1115
siesta:      1.60302  17.10418  27.36154  2     1116
siesta:      6.14352  19.67097  24.84127  2     1117
siesta:     -1.59800  22.24958 -22.24958  2     1118
siesta:     -1.60302  27.36154 -17.10418  2     1119
siesta:      4.19893  24.79701 -19.67707  2     1120
siesta:      9.33098  24.83304 -14.49621  2     1121
siesta:      4.15920  29.99150 -14.52876  2     1122
siesta:      9.34080  30.00291  -9.34080  2     1123
siesta:      6.72581  27.38033  11.88320  2     1124
siesta:      1.60302  27.36154  17.10418  2     1125
siesta:      6.14352  24.84127  19.67097  2     1126
siesta:      1.59800  22.24958  22.24958  2     1127
siesta:     11.88320 -27.38033  -6.72581  2     1128
siesta:     19.67097 -24.84127  -6.14352  2     1129
siesta:     17.10418 -27.36154  -1.60302  2     1130
siesta:     14.52876 -29.99150   4.15920  2     1131
siesta:     19.67707 -24.79701   4.19893  2     1132
siesta:     14.49621 -24.83304   9.33098  2     1133
siesta:     11.92532 -22.23496 -22.23496  2     1134
siesta:     17.10019 -17.10019 -22.20348  2     1135
siesta:     17.10019 -22.20348 -17.10019  2     1136
siesta:     19.65571 -19.65571   9.35578  2     1137
siesta:     14.49613 -19.66259  14.49613  2     1138
siesta:     19.66259 -14.49613  14.49613  2     1139
siesta:     14.49613 -14.49613  19.66259  2     1140
siesta:     11.88320  -6.72581 -27.38033  2     1141
siesta:     19.67097  -6.14352 -24.84127  2     1142
siesta:     19.65571  -9.35578  19.65571  2     1143
siesta:     14.49621  -9.33098  24.83304  2     1144
siesta:     19.67707  -4.19893  24.79701  2     1145
siesta:     14.52876  -4.15920  29.99150  2     1146
siesta:     17.10418  -1.60302 -27.36154  2     1147
siesta:     14.52876   4.15920 -29.99150  2     1148
siesta:     19.67707   4.19893 -24.79701  2     1149
siesta:     14.49621   9.33098 -24.83304  2     1150
siesta:     19.65571   9.35578 -19.65571  2     1151
siesta:     17.10418   1.60302  27.36154  2     1152
siesta:     11.88320   6.72581  27.38033  2     1153
siesta:     19.67097   6.14352  24.84127  2     1154
siesta:     14.49613  14.49613 -19.66259  2     1155
siesta:     19.66259  14.49613 -14.49613  2     1156
siesta:     14.49613  19.66259 -14.49613  2     1157
siesta:     19.65571  19.65571  -9.35578  2     1158
siesta:     17.10019  17.10019  22.20348  2     1159
siesta:     14.49621  24.83304  -9.33098  2     1160
siesta:     19.67707  24.79701  -4.19893  2     1161
siesta:     14.52876  29.99150  -4.15920  2     1162
siesta:     17.10418  27.36154   1.60302  2     1163
siesta:     11.88320  27.38033   6.72581  2     1164
siesta:     19.67097  24.84127   6.14352  2     1165
siesta:     17.10019  22.20348  17.10019  2     1166
siesta:     11.92532  22.23496  22.23496  2     1167
siesta:     22.20348 -17.10019 -17.10019  2     1168
siesta:     22.23496 -22.23496 -11.92532  2     1169
siesta:     24.84127 -19.67097  -6.14352  2     1170
siesta:     22.24958 -22.24958  -1.59800  2     1171
siesta:     27.36154 -17.10418  -1.60302  2     1172
siesta:     24.79701 -19.67707   4.19893  2     1173
siesta:     29.99150 -14.52876   4.15920  2     1174
siesta:     24.83304 -14.49621   9.33098  2     1175
siesta:     22.23496 -11.92532 -22.23496  2     1176
siesta:     24.84127  -6.14352 -19.67097  2     1177
siesta:     27.38033  -6.72581 -11.88320  2     1178
siesta:     27.38033 -11.88320  -6.72581  2     1179
siesta:     30.00291  -9.34080   9.34080  2     1180
siesta:     24.83304  -9.33098  14.49621  2     1181
siesta:     29.99150  -4.15920  14.52876  2     1182
siesta:     24.79701  -4.19893  19.67707  2     1183
siesta:     22.24958  -1.59800 -22.24958  2     1184
siesta:     27.36154  -1.60302 -17.10418  2     1185
siesta:     24.79701   4.19893 -19.67707  2     1186
siesta:     29.99150   4.15920 -14.52876  2     1187
siesta:     24.83304   9.33098 -14.49621  2     1188
siesta:     30.00291   9.34080  -9.34080  2     1189
siesta:     27.38033   6.72581  11.88320  2     1190
siesta:     27.36154   1.60302  17.10418  2     1191
siesta:     24.84127   6.14352  19.67097  2     1192
siesta:     22.24958   1.59800  22.24958  2     1193
siesta:     24.83304  14.49621  -9.33098  2     1194
siesta:     29.99150  14.52876  -4.15920  2     1195
siesta:     24.79701  19.67707  -4.19893  2     1196
siesta:     27.36154  17.10418   1.60302  2     1197
siesta:     27.38033  11.88320   6.72581  2     1198
siesta:     24.84127  19.67097   6.14352  2     1199
siesta:     22.20348  17.10019  17.10019  2     1200
siesta:     22.23496  11.92532  22.23496  2     1201
siesta:     22.24958  22.24958   1.59800  2     1202
siesta:     22.23496  22.23496  11.92532  2     1203
siesta:    -26.92955 -17.59153  12.41507  2     1204
siesta:    -27.85183 -14.41649   9.27217  2     1205
siesta:    -32.61679  -6.77642  -3.55494  2     1206
siesta:    -32.61679  -3.55494  -6.77642  2     1207
siesta:    -31.98285 -12.48648   2.16438  2     1208
siesta:    -33.04852  -9.36433  -0.97998  2     1209
siesta:    -31.98486  -7.33136   7.33136  2     1210
siesta:    -33.06461  -4.20087   4.20087  2     1211
siesta:    -26.92955 -12.41507  17.59153  2     1212
siesta:    -27.85183  -9.27217  14.41649  2     1213
siesta:    -33.04852  -0.97998  -9.36433  2     1214
siesta:    -31.98285   2.16438 -12.48648  2     1215
siesta:    -33.06461   4.20087  -4.20087  2     1216
siesta:    -31.98486   7.33136  -7.33136  2     1217
siesta:    -32.63221  -1.61071   1.61071  2     1218
siesta:    -32.63221   1.61071  -1.61071  2     1219
siesta:    -32.61679   3.55494   6.77642  2     1220
siesta:    -32.61679   6.77642   3.55494  2     1221
siesta:    -31.98285  -2.16438  12.48648  2     1222
siesta:    -33.04852   0.97998   9.36433  2     1223
siesta:    -27.85183   9.27217 -14.41649  2     1224
siesta:    -26.92955  12.41507 -17.59153  2     1225
siesta:    -27.85183  14.41649  -9.27217  2     1226
siesta:    -26.92955  17.59153 -12.41507  2     1227
siesta:    -33.04852   9.36433   0.97998  2     1228
siesta:    -31.98285  12.48648  -2.16438  2     1229
siesta:    -14.41649 -27.85183   9.27217  2     1230
siesta:    -17.59153 -26.92955  12.41507  2     1231
siesta:    -14.41649  -9.27217  27.85183  2     1232
siesta:    -17.59153 -12.41507  26.92955  2     1233
siesta:    -17.59153  12.41507 -26.92955  2     1234
siesta:    -14.41649   9.27217 -27.85183  2     1235
siesta:    -17.59153  26.92955 -12.41507  2     1236
siesta:    -14.41649  27.85183  -9.27217  2     1237
siesta:     -3.55494 -32.61679  -6.77642  2     1238
siesta:     -6.77642 -32.61679  -3.55494  2     1239
siesta:     -9.36433 -33.04852  -0.97998  2     1240
siesta:    -12.48648 -31.98285   2.16438  2     1241
siesta:     -4.20087 -33.06461   4.20087  2     1242
siesta:     -7.33136 -31.98486   7.33136  2     1243
siesta:     -9.27217 -27.85183  14.41649  2     1244
siesta:    -12.41507 -26.92955  17.59153  2     1245
siesta:    -12.41507 -17.59153  26.92955  2     1246
siesta:     -9.27217 -14.41649  27.85183  2     1247
siesta:     -6.77642  -3.55494 -32.61679  2     1248
siesta:     -3.55494  -6.77642 -32.61679  2     1249
siesta:     -4.20087  -4.20087  33.06461  2     1250
siesta:     -7.33136  -7.33136  31.98486  2     1251
siesta:    -12.48648   2.16438 -31.98285  2     1252
siesta:     -9.36433  -0.97998 -33.04852  2     1253
siesta:     -7.33136   7.33136 -31.98486  2     1254
siesta:     -4.20087   4.20087 -33.06461  2     1255
siesta:    -12.48648  -2.16438  31.98285  2     1256
siesta:     -9.36433   0.97998  33.04852  2     1257
siesta:     -3.55494   6.77642  32.61679  2     1258
siesta:     -6.77642   3.55494  32.61679  2     1259
siesta:    -12.41507  17.59153 -26.92955  2     1260
siesta:     -9.27217  14.41649 -27.85183  2     1261
siesta:     -9.27217  27.85183 -14.41649  2     1262
siesta:    -12.41507  26.92955 -17.59153  2     1263
siesta:     -7.33136  31.98486  -7.33136  2     1264
siesta:     -4.20087  33.06461  -4.20087  2     1265
siesta:     -9.36433  33.04852   0.97998  2     1266
siesta:    -12.48648  31.98285  -2.16438  2     1267
siesta:     -6.77642  32.61679   3.55494  2     1268
siesta:     -3.55494  32.61679   6.77642  2     1269
siesta:      2.16438 -31.98285 -12.48648  2     1270
siesta:     -0.97998 -33.04852  -9.36433  2     1271
siesta:      7.33136 -31.98486  -7.33136  2     1272
siesta:      4.20087 -33.06461  -4.20087  2     1273
siesta:      1.61071 -32.63221  -1.61071  2     1274
siesta:     -1.61071 -32.63221   1.61071  2     1275
siesta:      6.77642 -32.61679   3.55494  2     1276
siesta:      3.55494 -32.61679   6.77642  2     1277
siesta:      0.97998 -33.04852   9.36433  2     1278
siesta:     -2.16438 -31.98285  12.48648  2     1279
siesta:     -0.97998  -9.36433 -33.04852  2     1280
siesta:      2.16438 -12.48648 -31.98285  2     1281
siesta:      4.20087  -4.20087 -33.06461  2     1282
siesta:      7.33136  -7.33136 -31.98486  2     1283
siesta:     -2.16438 -12.48648  31.98285  2     1284
siesta:      0.97998  -9.36433  33.04852  2     1285
siesta:      6.77642  -3.55494  32.61679  2     1286
siesta:      3.55494  -6.77642  32.61679  2     1287
siesta:     -1.61071   1.61071 -32.63221  2     1288
siesta:      1.61071  -1.61071 -32.63221  2     1289
siesta:      3.55494   6.77642 -32.61679  2     1290
siesta:      6.77642   3.55494 -32.61679  2     1291
siesta:     -1.61071  -1.61071  32.63221  2     1292
siesta:      1.61071   1.61071  32.63221  2     1293
siesta:      7.33136   7.33136  31.98486  2     1294
siesta:      4.20087   4.20087  33.06461  2     1295
siesta:     -2.16438  12.48648 -31.98285  2     1296
siesta:      0.97998   9.36433 -33.04852  2     1297
siesta:     -0.97998   9.36433  33.04852  2     1298
siesta:      2.16438  12.48648  31.98285  2     1299
siesta:      0.97998  33.04852  -9.36433  2     1300
siesta:     -2.16438  31.98285 -12.48648  2     1301
siesta:      3.55494  32.61679  -6.77642  2     1302
siesta:      6.77642  32.61679  -3.55494  2     1303
siesta:      1.61071  32.63221   1.61071  2     1304
siesta:     -1.61071  32.63221  -1.61071  2     1305
siesta:      4.20087  33.06461   4.20087  2     1306
siesta:      7.33136  31.98486   7.33136  2     1307
siesta:      2.16438  31.98285  12.48648  2     1308
siesta:     -0.97998  33.04852   9.36433  2     1309
siesta:     12.41507 -26.92955 -17.59153  2     1310
siesta:      9.27217 -27.85183 -14.41649  2     1311
siesta:     17.59153 -26.92955 -12.41507  2     1312
siesta:     14.41649 -27.85183  -9.27217  2     1313
siesta:     12.48648 -31.98285  -2.16438  2     1314
siesta:      9.36433 -33.04852   0.97998  2     1315
siesta:      9.27217 -14.41649 -27.85183  2     1316
siesta:     12.41507 -17.59153 -26.92955  2     1317
siesta:     14.41649  -9.27217 -27.85183  2     1318
[...]
redata: (free) Energy tolerance for SCF             =     0.000100 eV
redata: Using Saved Data (generic)                  =   F
redata: Use continuation files for DM               =   T
redata: Neglect nonoverlap interactions             =   F
redata: Method of Calculation                       = PEXSI
redata: Fix the spin of the system                  =   F
redata: Max. number of TDED Iter                    =        1
redata: Number of TDED substeps                     =        3
redata: Dynamics option                             = Single-point calculation
mix.SCF: Pulay mixing                            = Pulay
mix.SCF:    Variant                              = stable
mix.SCF:    History steps                        = 4
mix.SCF:    Linear mixing weight                 =     0.300000
mix.SCF:    Mixing weight                        =     0.300000
mix.SCF:    SVD condition                        = 0.1000E-07
redata: Save all siesta data in one NC              =   F
redata: ***********************************************************************

%block SCF.Mixers
  Pulay
%endblock SCF.Mixers

%block SCF.Mixer.Pulay
  # Mixing method
  method pulay
  variant stable

  # Mixing options
  weight 0.3000
  weight.linear 0.3000
  history 4
%endblock SCF.Mixer.Pulay

DM_history_depth set to one: no extrapolation allowed by default for geometry relaxation
Size of DM history Fstack: 1
Total number of electrons:  4320.000000
Total ionic charge:  4320.000000

* ProcessorY, Blocksize:    2  24


* Orbital distribution balance (max,min):  1080  1080


siesta: k-grid: Number of k-points = 1
siesta: k-point is Gamma-only

diag: Algorithm                                     = D&C
diag: Parallel over k                               =   F
diag: Use parallel 2D distribution                  =   T
diag: Parallel block-size                           = 24
diag: Parallel distribution                         =     2 x     2
diag: Used triangular part                          = Lower
diag: Absolute tolerance                            =  0.100E-15
diag: Orthogonalization factor                      =  0.100E-05
diag: Memory factor                                 =  1.0000


ts: **************************************************************
ts: Save H and S matrices                           =    F
ts: Save DM and EDM matrices                        =    F
ts: Only save the overlap matrix S                  =    F
ts: **************************************************************

************************ Begin: TS CHECKS AND WARNINGS ************************
************************ End: TS CHECKS AND WARNINGS **************************

 &m -- Max memory after siesta_init    35808.00

                     ====================================
                        Single-point calculation
                     ====================================

outcell: Unit cell vectors (Ang):
       45.000000    0.000000    0.000000
        0.000000   45.000000    0.000000
        0.000000    0.000000   45.000000

outcell: Cell vector modules (Ang)   :   45.000000   45.000000   45.000000
outcell: Cell angles (23,13,12) (deg):     90.0000     90.0000     90.0000
outcell: Cell volume (Ang**3)        :  91125.0000
<dSpData1D:S at geom step 0
  <sparsity:sparsity for geom step 0
    nrows_g=4320 nrows=1080 sparsity=.0113 nnzs=211356, refcount: 7>
  <dData1D:(new from dSpData1D) n=211356, refcount: 1>
refcount: 1>
new_DM -- step:     1
Initializing Density Matrix...

Attempting to read DM from file... Failed...
DM filled with atomic data:
<dSpData2D:DM initialized from atoms
  <sparsity:sparsity for geom step 0
    nrows_g=4320 nrows=1080 sparsity=.0113 nnzs=211356, refcount: 8>
  <dData2D:DM n=211356 m=1, refcount: 1>
refcount: 1>
 &m -- Max memory after state_init    62464.00
No. of atoms with KB's overlaping orbs in proc 0. Max # of overlaps:    1200      56

InitMesh: MESH = 360 x 360 x 360 = 46656000
InitMesh: Mesh cutoff (required, used) =   150.000   176.881 Ry
New grid distribution [1]: sub = 2
New grid distribution [2]: sub = 2
New grid distribution [3]: sub = 2
Setting up quadratic distribution...
 &m -- Max memory after setup_H0   756144.00
 &m -- Max memory after setup_H  1054288.00
Electronic temperature (K):     290.11
world_rank, rank1, rank2, ing1?, ing2?     0     0     0 T T
 About to transfer numcols...
 Transferred numcols.
 About to transfer cols...
 About to transfer values...
 Done transfers.
 &m -- Peak memory (Mb) after setting up H+S for PEXSI (PEXSI_workers) (max,min):   1069664.00  1054288.00
 &m -- Peak memory (Mb) after setting up H+S for PEXSI (max,min):   1079952.00  1054288.00
Current PEXSI temperature (K):     290.11
&o Inertia-count step scf_step<numIC   1
&o Inertia-count called with iscf=1 parameters
Calling inertiaCount: [ -27.2116   0.0000] (eV) Nshifts:   40
imin, muMinInertia, imax, muMaxInertia:  34   -4.1864 38   -1.3955
muLower, muUpper:    -3.5003   -2.0914 mu estimated:    -2.7958
 -- new bracket (eV): [  -4.1864  -1.3955] estimated mu:   -2.7958 Nel width:     44.000 (Base:   5166.000 ) E width:      2.791
Calling inertiaCount: [  -4.2364  -1.3455] (eV) Nshifts:   40
imin, muMinInertia, imax, muMaxInertia:   2   -4.1623 35   -1.7161
muLower, muUpper:    -4.0894   -1.7896 mu estimated:    -2.9395
 -- new bracket (eV): [  -4.1623  -1.7161] estimated mu:   -2.9395 Nel width:     18.000 (Base:     78.000 ) E width:      2.446
Leaving inertia loop: mu tolerance:     0.680290
Computing DM for mu(eV):   -2.9395 Tol:   1.00000
Monitoring bracket:   -4.2364 -1.34547
Fermi Operator. mu:    -2.9395
Fermi Operator. numElectron:  4319.7053
Fermi Operator. dN_e/dmu:    -0.2239
PEXSI solver converged. mu:    -2.9395
 #&s Number of solver iterations:   1
 #&s Number of inertia iterations:   2
mu, N_e:    -2.93950   4319.7053  &s
world_rank, rank1, rank2, ing1?, ing2?     0     0     0 T T
 About to transfer numcols...
 Transferred numcols.
 About to transfer cols...
 About to transfer values...
 Done transfers.
 &m -- Max memory after compute_DM  1158800.00
 &m -- Max memory after setup_H  1261376.00

siesta: Program's energy decomposition (eV):
siesta: Ebs     =    -57113.740970
siesta: Eions   =    195256.971610
siesta: Ena     =     58606.570078
siesta: Ekin    =     43050.975745
siesta: Enl     =     12809.043633
siesta: Eso     =         0.000000
siesta: Edftu   =         0.000000
siesta: DEna    =      3996.593384
siesta: DUscf   =       283.189047
siesta: DUext   =         0.000000
siesta: Ex      =    -29014.844375
siesta: Ec      =     -5430.725735
siesta: Exc     =    -34445.570111
siesta: EbV     =         0.000000
siesta: eta*DQ  =         0.000000
siesta: Emadel  =         0.000000
siesta: Emeta   =         0.000000
siesta: Emolmec =         0.000000
siesta: Ekinion =         0.000000
siesta: Eharris =   -111254.688435
siesta: Etot    =   -110956.169832
siesta: FreeEng =   -110956.170436

        iscf     Eharris(eV)        E_KS(eV)     FreeEng(eV)     dDmax    Ef(eV) dHmax(eV)
   scf:    1  -111254.688435  -110956.169832  -110956.170436  1.177859 -2.939495  5.907498
             Section          Calls    Walltime % sect.
 IterSCF                          1      64.603  100.00
  compute_dm                      1      33.083   51.21
  setup_H                         1      31.505   48.77
  MIXER                           1       0.002    0.00
timer: Routine,Calls,Time,% = IterSCF        1      64.603  57.07
Estimated change in band-structure energy:     -5085.78314
Estimated shift in E_fermi:         -1.17726
Electronic temperature (K):     290.11
world_rank, rank1, rank2, ing1?, ing2?     0     0     0 T T
 About to transfer numcols...
 Transferred numcols.
 About to transfer cols...
 About to transfer values...
 Done transfers.
 &m -- Peak memory (Mb) after setting up H+S for PEXSI (PEXSI_workers) (max,min):   1261376.00  1248560.00
 &m -- Peak memory (Mb) after setting up H+S for PEXSI (max,min):   1324400.00  1240560.00
Current PEXSI solver tolerance:       0.43
Current PEXSI temperature (K):     290.11
&o Inertia-count step scf_step<numIC   2
&o Inertia-count safe bracket
Calling inertiaCount: [  -4.9395  -0.9395] (eV) Nshifts:   40
Wrong inertia-count interval (lower end). Counts:    4320.0000   5342.0000 New interval:    -7.9395   -0.9395
Calling inertiaCount: [  -7.9395  -0.9395] (eV) Nshifts:   40
imin, muMinInertia, imax, muMaxInertia:  13   -5.7856 27   -3.2728
muLower, muUpper:    -5.6069   -3.4508 mu estimated:    -4.5289
 -- new bracket (eV): [  -5.7856  -3.2728] estimated mu:   -4.5289 Nel width:     36.000 (Base:   2110.000 ) E width:      2.513
Calling inertiaCount: [  -5.8356  -3.2228] (eV) Nshifts:   40
imin, muMinInertia, imax, muMaxInertia:   3   -5.7017 39   -3.2898
muLower, muUpper:    -5.6352   -3.3563 mu estimated:    -4.4957
 -- new bracket (eV): [  -5.7017  -3.2898] estimated mu:   -4.4957 Nel width:     24.000 (Base:     36.000 ) E width:      2.412
Leaving inertia loop: mu tolerance:     0.680290
Computing DM for mu(eV):   -4.4957 Tol:   0.43419
Monitoring bracket:   -5.8356 -3.22283
Fermi Operator. mu:    -4.4957
Fermi Operator. numElectron:  4319.6922
Fermi Operator. dN_e/dmu:    -0.2424
PEXSI solver converged. mu:    -4.4957
 #&s Number of solver iterations:   1
 #&s Number of inertia iterations:   3
mu, N_e:    -4.49574   4319.6922  &s
world_rank, rank1, rank2, ing1?, ing2?     0     0     0 T T
 About to transfer numcols...
 Transferred numcols.
 About to transfer cols...
 About to transfer values...
 Done transfers.
 &m -- Max memory after compute_DM  1261376.00
 &m -- Max memory after setup_H  1261376.00
   scf:    2  -111020.178853  -111027.047071  -111027.047458  0.174164 -4.495741  4.084040
Estimated change in band-structure energy:       853.68968
Estimated shift in E_fermi:          0.19761
Electronic temperature (K):     290.11
world_rank, rank1, rank2, ing1?, ing2?     0     0     0 T T
 About to transfer numcols...
 Transferred numcols.
 About to transfer cols...
 About to transfer values...
 Done transfers.
 &m -- Peak memory (Mb) after setting up H+S for PEXSI (PEXSI_workers) (max,min):   1261376.00  1248560.00
 &m -- Peak memory (Mb) after setting up H+S for PEXSI (max,min):   1364720.00  1248560.00
Current PEXSI solver tolerance:       0.30
Current PEXSI temperature (K):     290.11
&o Inertia-count step scf_step<numIC   3
&o Inertia-count safe bracket
Calling inertiaCount: [  -6.4957  -2.4957] (eV) Nshifts:   40
imin, muMinInertia, imax, muMaxInertia:  13   -5.2650 38   -2.7009
muLower, muUpper:    -5.1641   -2.8026 mu estimated:    -3.9833
 -- new bracket (eV): [  -5.2650  -2.7009] estimated mu:   -3.9833 Nel width:     18.000 (Base:    310.000 ) E width:      2.564
Calling inertiaCount: [  -5.3150  -2.6509] (eV) Nshifts:   40
imin, muMinInertia, imax, muMaxInertia:   3   -5.1784 39   -2.7192
muLower, muUpper:    -5.1112   -2.7869 mu estimated:    -3.9491
 -- new bracket (eV): [  -5.1784  -2.7192] estimated mu:   -3.9491 Nel width:     18.000 (Base:     28.000 ) E width:      2.459
Leaving inertia loop: mu tolerance:     0.680290
Computing DM for mu(eV):   -3.9491 Tol:   0.30017
Monitoring bracket:   -5.3150 -2.65087
Fermi Operator. mu:    -3.9491
Fermi Operator. numElectron:  4319.6954
Fermi Operator. dN_e/dmu:    -0.2246
Computing DM for mu(eV):   -5.3053 Tol:   0.30017
Monitoring bracket:   -5.3150 -2.65087
Fermi Operator. mu:    -5.3053
Fermi Operator. numElectron:  4308.7369
Fermi Operator. dN_e/dmu:    98.7025
Computing DM for mu(eV):   -5.1912 Tol:   0.30017
Monitoring bracket:   -5.3150 -2.65087
Fermi Operator. mu:    -5.1912
Fermi Operator. numElectron:  4315.2299
Fermi Operator. dN_e/dmu:    49.8638
Computing DM for mu(eV):   -5.0955 Tol:   0.30017
Monitoring bracket:   -5.3150 -2.65087
Fermi Operator. mu:    -5.0955
Fermi Operator. numElectron:  4319.3893
Fermi Operator. dN_e/dmu:    12.0407
Computing DM for mu(eV):   -5.0448 Tol:   0.30017
Monitoring bracket:   -5.3150 -2.65087
Fermi Operator. mu:    -5.0448
Fermi Operator. numElectron:  4319.6774
Fermi Operator. dN_e/dmu:     1.2373
Computing DM for mu(eV):   -4.7840 Tol:   0.30017
Monitoring bracket:   -5.3150 -2.65087
Fermi Operator. mu:    -4.7840
Fermi Operator. numElectron:  4319.7084
Fermi Operator. dN_e/dmu:    -0.3453
PEXSI solver converged. mu:    -4.7840
 #&s Number of solver iterations:   6
 #&s Number of inertia iterations:   2
mu, N_e:    -4.78403   4319.7084  &s
world_rank, rank1, rank2, ing1?, ing2?     0     0     0 T T
 About to transfer numcols...
 Transferred numcols.
 About to transfer cols...
 About to transfer values...
 Done transfers.
 &m -- Max memory after compute_DM  1261376.00
 &m -- Max memory after setup_H  1261376.00
   scf:    3  -111034.252176  -111041.748137  -111041.748132  0.034861 -4.784031  3.465540
SCF_NOT_CONV: SCF did not converge  in maximum number of steps.
Geom step, scf iteration, dmax:    0     3     0.254710

siesta: E_KS(eV) =          -111041.7481

siesta: E_KS - E_eggbox =   -111041.7481

siesta: Atomic forces (eV/Ang):
----------------------------------------
   Tot    0.000000    0.000000    0.000000
----------------------------------------
   Max    0.000000
   Res    0.000000    sqrt( Sum f_i^2 / 3N )
----------------------------------------
   Max    0.000000    constrained

Stress tensor Voigt[x,y,z,yz,xz,xy] (kbar):    -2427.88    -2427.88    -2427.88        0.00        0.00        0.00
(Free)E + p*V (eV/cell)    27044.3450
Target enthalpy (eV/cell)  -111041.7481
 &m -- Max memory after state_analysis  1261376.00
 &m -- Max memory after geometry step  1261376.00

siesta: Program's energy decomposition (eV):
siesta: Ebs     =    -48313.598163
siesta: Eions   =    195256.971610
siesta: Ena     =     58606.570078
siesta: Ekin    =     42946.429702
siesta: Enl     =     13143.916389
siesta: Eso     =         0.000000
siesta: Edftu   =         0.000000
siesta: DEna    =      3801.587170
siesta: DUscf   =       151.716992
siesta: DUext   =         0.000000
siesta: Ex      =    -29003.743617
siesta: Ec      =     -5431.253241
siesta: Exc     =    -34434.996858
siesta: EbV     =         0.000000
siesta: eta*DQ  =         0.000000
siesta: Emadel  =         0.000000
siesta: Emeta   =         0.000000
siesta: Emolmec =         0.000000
siesta: Ekinion =         0.000000
siesta: Eharris =   -111034.252176
siesta: Etot    =   -111041.748137
siesta: FreeEng =   -111041.748132

siesta: Final energy (eV):
siesta:  Band Struct. =  -48313.598163
siesta:       Kinetic =   42946.429702
siesta:       Hartree = 1902293.346373
siesta:         Edftu =       0.000000
siesta:       Eso     =       0.000000
siesta:    Ext. field =       0.000000
siesta:         Exch. =  -29003.743617
siesta:         Corr. =   -5431.253241
siesta:     Bulk bias =       0.000000
siesta:   Exch.-corr. =  -34434.996858
siesta:  Ion-electron =-3850950.939704
siesta:       Ion-ion = 1829104.412351
siesta:       Ekinion =       0.000000
siesta: D3 dispersion =       0.000000
siesta:         Total = -111041.748137
siesta:         Fermi =      -4.784031

siesta: Stress tensor (static) (eV/Ang**3):
siesta:    -1.515348    0.000000    0.000000
siesta:     0.000000   -1.515348    0.000000
siesta:     0.000000    0.000000   -1.515348

siesta: Cell volume =      91125.000000 Ang**3

siesta: Pressure (static):
siesta:                Solid            Molecule  Units
siesta:           0.01650408          0.01650408  Ry/Bohr**3
siesta:           1.51534807          1.51534807  eV/Ang**3
siesta:        2427.88151796       2427.88151796  kBar
(Free)E+ p_basis*V_orbitals  =     -110747.613867
(Free)Eharris+ p_basis*V_orbitals  =     -110740.117907

siesta: Electric dipole (a.u.)  =   -0.000000    0.000000    0.000000
siesta: Electric dipole (Debye) =   -0.000000    0.000000    0.000000
 &m -- Max memory after siesta_analysis  1261376.00

cite: Please see "si-qdot-pexsi-native.bib" for an exhaustive BiBTeX file.
cite: Please clearly indicate Siesta version in published work: 5.0.0-alpha-76-g9b2341135-dirty
cite: This calculation has made use of the following articles
cite: which are encouraged to be cited in a published work.
        Primary SIESTA paper
          DOI: www.doi.org/10.1088/0953-8984/14/11/302
        SIESTA-PEXSI
          DOI: www.doi.org/10.1088/0953-8984/26/30/305503


             Section          Calls    Walltime       %
 global_section                   1     353.162  100.00
  siesta                          1     353.162  100.00
   Setup                          1       0.155    0.04
    bands                         1       0.001    0.00
    KSV_init                      1       0.000    0.00
   IterGeom                       1     352.988   99.95
    geom_init                     1      48.435   13.71
     state_init                   1       0.250    0.07
      hsparse                     1       0.153    0.04
      overlap                     1       0.050    0.01
     Setup_H0                     1      16.756    4.74
      naefs                       1       0.018    0.00
      MolMec                      1       0.000    0.00
      kinefsm                     1       0.050    0.01
      nlefsm                      1       0.317    0.09
      DHSCF_Init                  1      16.362    4.63
       DHSCF1                     1       0.086    0.02
        INITMESH                  1       0.000    0.00
       DHSCF2                     1      16.266    4.61
        REMESH                    1       1.735    0.49
         INITMESH                 2       0.021    0.01
          SPLOAD                  2       0.020    0.01
        REORD                     1       0.059    0.02
        PHION                     1       1.323    0.37
        COMM_BSC                  1       0.257    0.07
        POISON                    1       4.260    1.21
         fft                      2       3.752    1.06
     setup_H                      1      31.429    8.90
      DHSCF                       1      31.406    8.89
       DHSCF3                     1      31.406    8.89
        rhoofd                    1      13.385    3.79
        COMM_BSC                  2       0.313    0.09
        POISON                    1       4.008    1.13
         fft                      2       3.585    1.02
        XC                        1       0.773    0.22
         COMM_BSC                 2       0.144    0.04
         GXC-CellXC               1       0.605    0.17
          gridxc@cellXC           1       0.605    0.17
        vmat                      1      12.515    3.54
    IterSCF                       3     304.537   86.23
     compute_dm                   3     209.442   59.30
      pexsi                       3     209.432   59.30
       redist_orbs_fwd            3       0.016    0.00
       pexsi-solver               3     209.054   59.19
        pexsi-inertia-ct          7      40.677   11.52
       redist_orbs_bck            3       0.012    0.00
     setup_H                      3      95.037   26.91
      DHSCF                       3      95.016   26.90
       DHSCF3                     3      95.016   26.90
        rhoofd                    3      40.046   11.34
        COMM_BSC                  6       1.507    0.43
        POISON                    3      12.352    3.50
         fft                      6      10.936    3.10
        XC                        3       2.220    0.63
         COMM_BSC                 6       0.327    0.09
         GXC-CellXC               3       1.822    0.52
          gridxc@cellXC           3       1.822    0.52
        vmat                      3      37.563   10.64
     MIXER                        3       0.023    0.01
    state_analysis                1       0.003    0.00
    siesta_move                   1       0.000    0.00
   Analysis                       1       0.016    0.00
    optical                       1       0.000    0.00

>> End of run:  14-JUN-2023   9:31:24
Job completed
 &m -- Max memory at end of program  1261376.00
