Siesta Version  : v4.1.5-1-g384057250
Architecture    : x86_64-linux-gcc
Compiler version: GNU Fortran (GCC) 11.2.0
Compiler flags  : mpifort -m64 -fPIC -O3 -ftree-vectorize -fexpensive-optimizations -funroll-loops -fprefetch-loop-arrays -fgraphite -fipa-icf -fipa-pure-const -march=native -fschedule-fusion -fselective-scheduling -fstack-arrays -fmax-stack-var-size=10000 -fipa-sra -fipa-cp -fcheck=recursion,array-temps -fno-second-underscore -Wrealloc-lhs -Wrealloc-lhs-all -fallow-argument-mismatch
PP flags        : -DSIESTA__FLOOK -DSIESTA__METIS -DSIESTA__FFTW -DTS_PVT_METIS -DSIESTA__MRRR -DSIESTA__SCALAPACK_RESET -DMPI -DFC_HAVE_FLUSH -DFC_HAVE_ABORT -DCDF -DGRID_DP -DMPI_TIMING -DTRANSIESTA_TIMING -DTBTRANS_TIMING -DSIESTA__MUMPS -DNCDF_PARALLEL -DNCDF -DNCDF_4 -DSCALAPACK_DEBUG -D_DIAG_WORK -DSIESTA__DIAG_2STAGE -DSIESTA__ELPA
Libraries       : libncdf.a libfdict.a  -lzmumps -lmumps_common -lpord -lparmetis -lmetis -lesmumps -lscotch -lscotcherr -L/opt/gnu/11.2.0/elpa/2020.05.001/lib -Wl,-rpath=/opt/gnu/11.2.0/elpa/2020.05.001/lib -lelpa -L/opt/gnu/11.2.0/scalapack-debug/2.1.0/lib -Wl,-rpath=/opt/gnu/11.2.0/scalapack-debug/2.1.0/lib -lscalapack  -L/opt/gnu/11.2.0/openblas/0.3.18/lib -Wl,-rpath=/opt/gnu/11.2.0/openblas/0.3.18/lib -lopenblas -L/home/nicpa/codes/flook/obj -lflookall -ldl -l:libnetcdff.so  -m64 -fPIC -O3 -ftree-vectorize -fexpensive-optimizations -funroll-loops -fprefetch-loop-arrays -fgraphite -fipa-icf -fipa-pure-const -march=native -fschedule-fusion -fselective-scheduling -fstack-arrays -fmax-stack-var-size=10000 -fipa-sra -fipa-cp -fcheck=recursion,array-temps -fno-second-underscore -Wrealloc-lhs -Wrealloc-lhs-all -fallow-argument-mismatch -L/opt/gnu/11.2.0/fftw/3.3.10/lib -Wl,-rpath=/opt/gnu/11.2.0/fftw/3.3.10/lib -lfftw3
PARALLEL version
NetCDF support
NetCDF-4 support
NetCDF-4 MPI-IO support
METIS ordering support
Lua support

* Running on 6 nodes in parallel
>> Start of run:   3-NOV-2021  21:59:59

                           ***********************       
                           *  WELCOME TO SIESTA  *       
                           ***********************       

reinit: Reading from ts_au_111_capacitor.fdf

reinit: -----------------------------------------------------------------------
reinit: System Name: ts_au_111_capacitor
reinit: -----------------------------------------------------------------------
reinit: System Label: ts_au_111_capacitor
reinit: -----------------------------------------------------------------------

initatom: Reading input for the pseudopotentials and atomic orbitals ----------
Species number:   1 Atomic number:   79 Label: Au

Ground state valence configuration:   6s01  5d10
Reading pseudopotential information in formatted form from Au.psf

Pseudopotential generated from a relativistic atomic calculation

Valence configuration for pseudopotential generation:
6s( 1.00) rc: 2.32
6p( 0.00) rc: 2.32
5d(10.00) rc: 2.32
5f( 0.00) rc: 2.32
For Au, standard SIESTA heuristics set lmxkb to 3
 (one more than the basis l, including polarization orbitals).
Use PS.lmax or PS.KBprojectors blocks to override.
Au: nkbl increased for l=1 due to the presence of a polarization orbital

<basis_specs>
===============================================================================
Au                   Z=  79    Mass=  196.97        Charge= 0.17977+309
Lmxo=2 Lmxkb= 3    BasisType=split      Semic=F
L=0  Nsemic=0  Cnfigmx=6
          i=1  nzeta=1  polorb=1  (6s)
            splnorm:   0.15000    
               vcte:    0.0000    
               rinn:    0.0000    
               qcoe:    0.0000    
               qyuk:    0.0000    
               qwid:   0.10000E-01
                rcs:    0.0000    
            lambdas:    1.0000    
L=1  Nsemic=0  Cnfigmx=6
L=2  Nsemic=0  Cnfigmx=5
          i=1  nzeta=1  polorb=0  (5d)
            splnorm:   0.15000    
               vcte:    0.0000    
               rinn:    0.0000    
               qcoe:    0.0000    
               qyuk:    0.0000    
               qwid:   0.10000E-01
                rcs:    0.0000    
            lambdas:    1.0000    
-------------------------------------------------------------------------------
L=0  Nkbl=1  erefs: 0.17977+309
L=1  Nkbl=2  erefs: 0.17977+309 0.17977+309
L=2  Nkbl=1  erefs: 0.17977+309
L=3  Nkbl=1  erefs: 0.17977+309
===============================================================================
</basis_specs>

atom: Called for Au                    (Z =  79)

read_vps: Pseudopotential generation method:
read_vps: ATM3      Troullier-Martins                       
Valence charge for ps generation:   11.00000

xc_check: Exchange-correlation functional:
xc_check: Ceperley-Alder
V l=0 = -2*Zval/r beyond r=  3.7361
V l=1 = -2*Zval/r beyond r=  3.7361
V l=2 = -2*Zval/r beyond r=  3.7361
V l=3 = -2*Zval/r beyond r=  3.7361
All V_l potentials equal beyond r=  2.2946
This should be close to max(r_c) in ps generation
All pots = -2*Zval/r beyond r=  3.7361
Using large-core scheme for Vlocal

atom: Estimated core radius    3.73611

atom: Including non-local core corrections could be a good idea
atom: Maximum radius for 4*pi*r*r*local-pseudopot. charge    4.07775
atom: Maximum radius for r*vlocal+2*Zval:    3.78310
GHOST: No ghost state for L =  0
KBgen: More than one KB projector for l=  1
KBgen: ghost states analysis will be not performed
GHOST: No ghost state for L =  2
GHOST: No ghost state for L =  3

KBgen: Kleinman-Bylander projectors: 
   l= 0   rc=  2.382235   el= -0.445645   Ekb=  4.511922   kbcos=  0.274440
   l= 1   rc=  2.382235   el= -0.065316   Ekb=  2.560647   kbcos=  0.223707
   l= 1   rc=  2.382235   el=  0.001421   Ekb=  2.131832   kbcos=  0.034244
   l= 2   rc=  2.382235   el= -0.526293   Ekb= -5.024070   kbcos= -0.676934
   l= 3   rc=  2.382235   el=  0.003438   Ekb= -2.070042   kbcos= -0.013117

KBgen: Total number of Kleinman-Bylander projectors:   19
atom: -------------------------------------------------------------------------

atom: SANKEY-TYPE ORBITALS:

SPLIT: Orbitals with angular momentum L= 0

SPLIT: Basis orbitals for state 6s

SPLIT: PAO cut-off radius determined from an
SPLIT: energy shift=  0.005000 Ry

   izeta = 1
                 lambda =    1.000000
                     rc =    7.246712
                 energy =   -0.441368
                kinetic =    0.367640
    potential(screened) =   -0.809008
       potential(ionic) =   -8.408267

SPLIT: Orbitals with angular momentum L= 2

SPLIT: Basis orbitals for state 5d

SPLIT: PAO cut-off radius determined from an
SPLIT: energy shift=  0.005000 Ry

   izeta = 1
                 lambda =    1.000000
                     rc =    5.106662
                 energy =   -0.521343
                kinetic =    4.852314
    potential(screened) =   -5.373657
       potential(ionic) =  -16.114240

POLgen: Perturbative polarization orbital with L=  1

POLgen: Polarization orbital for state 6s

   izeta = 1
                     rc =    7.246712
                 energy =   -0.107868
                kinetic =    0.647525
    potential(screened) =   -0.755394
       potential(ionic) =   -7.869443
atom: Total number of Sankey-type orbitals:  9

atm_pop: Valence configuration (for local Pseudopot. screening):
 6s( 1.00)                                                            
 6p( 0.00)                                                            
 5d(10.00)                                                            
Vna: chval, zval:   11.00000  11.00000

Vna:  Cut-off radius for the neutral-atom potential:   7.246712

atom: _________________________________________________________________________

prinput: Basis input ----------------------------------------------------------

PAO.BasisType split     

%block ChemicalSpeciesLabel
    1   79 Au                      # Species index, atomic number, species label
%endblock ChemicalSpeciesLabel

%block PAO.Basis                 # Define Basis set
Au                    2                    # Species label, number of l-shells
 n=6   0   1 P   1                   # n, l, Nzeta, Polarization, NzetaPol
   7.247   
   1.000   
 n=5   2   1                         # n, l, Nzeta 
   5.107   
   1.000   
%endblock PAO.Basis

prinput: ----------------------------------------------------------------------

Dumping basis to NetCDF file Au.ion.nc
coor:   Atomic-coordinates input format  =     Cartesian coordinates
coor:                                          (in units of alat)

siesta: WARNING: XV file not found

siesta: Atomic coordinates (Bohr) and species
siesta:      0.00000   0.00000   0.00000  1        1
siesta:      2.76194   1.59461   4.51023  1        2
siesta:      2.76194  -1.59461   9.02046  1        3
siesta:      0.00000   0.00000  13.53069  1        4
siesta:      2.76194   1.59461  18.04092  1        5
siesta:      2.76194   1.59461  36.08183  1        6
siesta:      2.76194  -1.59461  40.59206  1        7
siesta:      0.00000   0.00000  45.10229  1        8
siesta:      2.76194   1.59461  49.61252  1        9
siesta:      2.76194  -1.59461  54.12275  1       10

siesta: System type = bulk      

initatomlists: Number of atoms, orbitals, and projectors:     10    90   190

coxmol: Writing XMOL coordinates into file ts_au_111_capacitor.xyz                                             

siesta: ******************** Simulation parameters ****************************
siesta:
siesta: The following are some of the parameters of the simulation.
siesta: A complete list of the parameters used, including default values,
siesta: can be found in file out.fdf
siesta:
redata: Spin configuration                          = none
redata: Number of spin components                   = 1
redata: Time-Reversal Symmetry                      = T
redata: Spin spiral                                 = F
redata: Long output                                 =   F
redata: Number of Atomic Species                    =        1
redata: Charge density info will appear in .RHO file
redata: Write Mulliken Pop.                         = Atomic and Orbital charges
redata: Matel table size (NRTAB)                    =     1024
redata: Mesh Cutoff                                 =   350.0000 Ry
redata: Net charge of the system                    =     0.0000 |e|
redata: Min. number of SCF Iter                     =        0
redata: Max. number of SCF Iter                     =      300
redata: SCF convergence failure will abort job
redata: SCF mix quantity                            = Hamiltonian
redata: Mix DM or H after convergence               =   F
redata: Recompute H after scf cycle                 =   F
redata: Mix DM in first SCF step                    =   T
redata: Write Pulay info on disk                    =   F
redata: New DM Occupancy tolerance                  = 0.000000000001
redata: No kicks to SCF
redata: DM Mixing Weight for Kicks                  =     0.5000
redata: Require Harris convergence for SCF          =   F
redata: Harris energy tolerance for SCF             =     0.000100 eV
redata: Require DM convergence for SCF              =   T
redata: DM tolerance for SCF                        =     0.000100
redata: Require EDM convergence for SCF             =   F
redata: EDM tolerance for SCF                       =     0.001000 eV
redata: Require H convergence for SCF               =   T
redata: Hamiltonian tolerance for SCF               =     0.001000 eV
redata: Require (free) Energy convergence for SCF   =   F
redata: (free) Energy tolerance for SCF             =     0.000100 eV
redata: Using Saved Data (generic)                  =   F
redata: Use continuation files for DM               =   T
redata: Neglect nonoverlap interactions             =   F
redata: Method of Calculation                       = Transiesta
redata: Fix the spin of the system                  =   F
redata: Dynamics option                             = Single-point calculation
mix.SCF: Pulay mixing                            = Pulay
mix.SCF:    Variant                              = stable
mix.SCF:    History steps                        = 5
mix.SCF:    Linear mixing weight                 =     0.030000
mix.SCF:    Mixing weight                        =     0.030000
mix.SCF:    SVD condition                        = 0.1000E-07
redata: Save all siesta data in one NC              =   F
redata: ***********************************************************************

%block SCF.Mixers
  Pulay
%endblock SCF.Mixers

%block SCF.Mixer.Pulay
  # Mixing method
  method pulay
  variant stable

  # Mixing options
  weight 0.0300
  weight.linear 0.0300
  history 5
%endblock SCF.Mixer.Pulay

DM_history_depth set to one: no extrapolation allowed by default for geometry relaxation
Size of DM history Fstack: 1
Total number of electrons:   110.000000
Total ionic charge:   110.000000

* ProcessorY, Blocksize:    2  16


* Orbital distribution balance (max,min):    16    10

k-point displ. along   1 input, could be:     0.00    0.50
k-point displ. along   2 input, could be:     0.00    0.50
 Kpoints in:          960 . Kpoints trimmed:          960

siesta: k-grid: Number of k-points =   960
siesta: k-grid: Cutoff (effective) =    11.692 Ang
siesta: k-grid: Supercell and displacements
siesta: k-grid:    8   0   0      0.000
siesta: k-grid:    0   8   0      0.000
siesta: k-grid:    0   0  30      0.500

diag: Algorithm                                     = Expert
diag: Parallel over k                               =   T
diag: Use parallel 2D distribution                  =   T
diag: Parallel block-size                           = 16
diag: Parallel distribution                         =     2 x     3
diag: Used triangular part                          = Lower
diag: Absolute tolerance                            =  0.100E-15
diag: Orthogonalization factor                      =  0.100E-05
diag: Memory factor                                 =  1.0000

superc: Internal auxiliary supercell:     9 x     9 x     3  =     243
superc: Number of atoms, orbitals, and projectors:   2430  21870  46170

k-point displ. along   1 input, could be:     0.00    0.50
k-point displ. along   2 input, could be:     0.00    0.50
 Kpoints in:           40 . Kpoints trimmed:           37

transiesta: k-grid: Number of Green function k-points =    37
transiesta: k-grid: Supercell and displacements
transiesta: k-grid:    8   0   0      0.000
transiesta: k-grid:    0   8   0      0.000
transiesta: k-grid:    0   0   1      0.000

ts: **************************************************************
ts: Voltage                                         =    1.0000 Volts
ts: Save H and S matrices                           =    T
ts: Electronic temperature                          =   99.999269 K
ts: Transport along unit-cell vector                =    A3
ts: Transport along Cartesian vector                =    Z
ts: Fixing Hartree potential at cell boundary       =    -C
ts: Fix Hartree potential fraction                  =    1.0000
ts: Hartree potential offset                        =    0.000000 eV
ts: Solution method                                 =    BTD
ts: BTD pivoting method                             =    atom+Left
ts: BTD creation algorithm                          =    speed
ts: BTD spectral function algorithm                 =    propagation
ts: SCF DM tolerance                                = 0.100E-03
ts: SCF Hamiltonian tolerance                       =    0.001000 eV
ts: SCF converge charge                             =    T
ts: SCF charge tolerance                            = 0.110E+00
ts: Initialize DM by                                =    diagon
ts: Hartree potential ramp across entire cell
ts: Non-equilibrium contour weight method           =    orb-orb
ts: Non-equilibrium contour weight k-method         =    Correlated k-points
ts: Will not correct charge fluctuations
ts: TS.SCF mixing options same as SCF
ts:           >> Electrodes << 
ts: >> Left
ts:   Electrode cell pivoting: E1, E2, E3           = A1, A2, A3
ts:   GF file                                       = ts_au_111_capacitor.TSGFLeft
ts:   Reuse existing GF-file                        =    T
ts:   Electrode TSHS file                           = ./ts_au_elec_111_abc.TSHS
ts:   # atoms used in electrode                     =    3
ts:   Electrode Bloch unity [E1 x E2 x E3]          = 1 x 1 x 1
ts:   Position in geometry                          = 1 -- 3
ts:   Semi-infinite direction for electrode         = negative wrt. E3
ts:   Chemical shift                                =    0.499999 eV
ts:   Electronic temperature                        =   99.999269 K
ts:   Gamma-only electrode                          =    F
ts:   Bulk H, S in electrode region                 =    T
ts:   Initial DM for electrodes                     = diagon
ts:   Cross-terms are not updated
ts:   Manual delta-Ef shift                         =    0.000000 eV
ts:   Hamiltonian E-C bias fractional shift         =    0.0000
ts:   Electrode self-energy imaginary Eta           =  0.1000E-03 eV
ts:   Electrode self-energy accuracy                =  0.1000E-12 eV
ts:   Electrode inter-layer distance (semi-inf)     =    2.3867 Ang
ts: >> Right
ts:   Electrode cell pivoting: E1, E2, E3           = A1, A2, A3
ts:   GF file                                       = ts_au_111_capacitor.TSGFRight
ts:   Reuse existing GF-file                        =    T
ts:   Electrode TSHS file                           = ./ts_au_elec_111_abc.TSHS
ts:   # atoms used in electrode                     =    3
ts:   Electrode Bloch unity [E1 x E2 x E3]          = 1 x 1 x 1
ts:   Position in geometry                          = 8 -- 10
ts:   Semi-infinite direction for electrode         = positive wrt. E3
ts:   Chemical shift                                =   -0.499999 eV
ts:   Electronic temperature                        =   99.999269 K
ts:   Gamma-only electrode                          =    F
ts:   Bulk H, S in electrode region                 =    T
ts:   Initial DM for electrodes                     = diagon
ts:   Cross-terms are not updated
ts:   Manual delta-Ef shift                         =    0.000000 eV
ts:   Hamiltonian E-C bias fractional shift         =    0.0000
ts:   Electrode self-energy imaginary Eta           =  0.1000E-03 eV
ts:   Electrode self-energy accuracy                =  0.1000E-12 eV
ts:   Electrode inter-layer distance (semi-inf)     =    2.3867 Ang
ts:  ----------------- Contour ----------------- 
ts:            >> Residual contour << 
ts: Pole chemical potential                         =    0.5000 eV
ts:    Chemical potential temperature               =   99.9993 K
ts:    Number of poles                              =   47
ts:    Top energy point                             =    2.5448 eV
ts: Pole chemical potential                         =   -0.5000 eV
ts:    Chemical potential temperature               =   99.9993 K
ts:    Number of poles                              =   47
ts:    Top energy point                             =    2.5448 eV
ts:          >> Equilibrium contour << 
ts: Contour name                                    =    TS.Contour.c-Left
ts:   circle contour E_min                          =  -39.5000 eV
ts:   circle contour E_max                          =    0.4138 eV
ts:   circle contour points                         =   30
ts:   circle contour method                         =    Gauss-Legendre
ts: Contour name                                    =    TS.Contour.t-Left
ts:   tail contour E_min                            =    0.4138 eV
ts:   tail contour E_max                            =     Infinity
ts:   tail contour points                           =   10
ts:   tail contour method                           =    Gauss-Fermi (0kT)
ts: Contour name                                    =    TS.Contour.c-Right
ts:   circle contour E_min                          =  -40.5000 eV
ts:   circle contour E_max                          =   -0.5862 eV
ts:   circle contour points                         =   30
ts:   circle contour method                         =    Gauss-Legendre
ts: Contour name                                    =    TS.Contour.t-Right
ts:   tail contour E_min                            =   -0.5862 eV
ts:   tail contour E_max                            =     Infinity
ts:   tail contour points                           =   10
ts:   tail contour method                           =    Gauss-Fermi (0kT)
ts:         >> non-Equilibrium contour << 
ts: Device Green function imaginary Eta             = 0.1000E-04 eV
ts: Fermi-function cut-off                          =  5.000     kT
ts: Contour name                                    =    TS.Contour.nEq.neq
ts:   line contour E_min                            =   -0.5431 eV
ts:   line contour E_max                            =    0.5431 eV
ts:   line contour points                           =  109
ts:   line contour method                           =    Mid-rule
ts: **************************************************************

************************ Begin: TS CHECKS AND WARNINGS ************************
Without loosing performance you can increase the non-equilibrium integration precision.
You can add 5 more energy points in the non-equilibrium contours, for FREE!
You are initializing the electrode EDM. This may result in erroneous forces on electrode atoms. Do not use forces from electrodes.
Electrode Left will not update cross-terms or local region.
Electrode Right will not update cross-terms or local region.
Consider updating more elements. The charge conservation and force accuracy improves.
  TS.Elecs.DM.Update [cross-terms|all]
************************ End: TS CHECKS AND WARNINGS **************************

                  ****************************************
                   TRANSIESTA REPORTED IMPORTANT WARNINGS
                  ****************************************

>>> TranSiesta block information for FDF-file START <<<

%block TS.ChemPots
  Left
  Right
%endblock TS.ChemPots

%block TS.ChemPot.Left
  mu  V/2
  contour.eq
   begin
    c-Left
    t-Left
   end
%endblock TS.ChemPot.Left
%block TS.ChemPot.Right
  mu  - V/2
  contour.eq
   begin
    c-Right
    t-Right
   end
%endblock TS.ChemPot.Right
%block TS.Contour.c-Left
  part circle
     from -40.00000 eV + V/2 to -10. kT + V/2
      points 30
        method g-legendre
%endblock TS.Contour.c-Left
%block TS.Contour.t-Left
  part tail
     from prev to + inf
      points 10
        method g-fermi
%endblock TS.Contour.t-Left
%block TS.Contour.c-Right
  part circle
     from -40.00000 eV - V/2 to -10. kT - V/2
      points 30
        method g-legendre
%endblock TS.Contour.c-Right
%block TS.Contour.t-Right
  part tail
     from prev to + inf
      points 10
        method g-fermi
%endblock TS.Contour.t-Right
%block TS.Contours.nEq
    neq
%endblock TS.Contours.nEq

%block TS.Contour.nEq.neq
  part line
     from - |V|/2 - 5 kT to |V|/2 + 5 kT
      delta 0.01 eV
        method mid-rule
%endblock TS.Contour.nEq.neq

>>> TranSiesta block information for FDF-file END <<<


transiesta: Regions of atoms:
   ## (3): Elec.Left
     [ 1 -- 3 ]
   ## (3): Elec.Right
     [ 8 -- 10 ]
   -- (4): Device
     [ 4 -- 7 ]

  <sparsity:./ts_au_elec_111_abc.TSHS
    nrows_g=27 nrows=27 sparsity=44.2757 nnzs=32277, refcount: 3>
  <sparsity:(TM [--,--, 0] of: ./ts_au_elec_111_abc.TSHS)
    nrows_g=27 nrows=27 sparsity=25.1152 nnzs=18309, refcount: 3>
  <sparsity:(TM [--,--,-1] of: ./ts_au_elec_111_abc.TSHS)
    nrows_g=27 nrows=27 sparsity=9.4486 nnzs=6888, refcount: 3>
 Left principal cell is extending out with 96 elements:
    Atom 1 connects with atom 3
    Orbital 8 connects with orbital 26
    Hamiltonian value: |H(8,7046)|@R=-2 =  0.102E-18 eV
    Overlap          :  S(8,7046)|@R=-2 =   0.00    

Calculating all surface Green functions for: Left
 Fermi level shift in electrode (chemical potential) :        0.50000  eV
 Atoms available    / used atoms   :      3 /      3
 Orbitals available / used orbitals:     27 /     27
 Total self-energy calculations: 10471
 Saving surface Green functions in: ts_au_111_capacitor.TSGFLeft
 Estimated file size:    117.299 MB
 Lopez Sancho, Lopez Sancho & Rubio recursive surface self-energy calculation...
 Lopez Sancho, Lopez Sancho & Rubio: Mean/std iterations:     8.1083 /     6.0231
 Lopez Sancho, Lopez Sancho & Rubio: Min/Max iterations :          3 /         19
Done creating 'ts_au_111_capacitor.TSGFLeft'.

  <sparsity:./ts_au_elec_111_abc.TSHS
    nrows_g=27 nrows=27 sparsity=44.2757 nnzs=32277, refcount: 3>
  <sparsity:(TM [--,--, 0] of: ./ts_au_elec_111_abc.TSHS)
    nrows_g=27 nrows=27 sparsity=25.1152 nnzs=18309, refcount: 3>
  <sparsity:(TM [--,--, 1] of: ./ts_au_elec_111_abc.TSHS)
    nrows_g=27 nrows=27 sparsity=9.4486 nnzs=6888, refcount: 3>
 Right principal cell is extending out with 96 elements:
    Atom 3 connects with atom 1
    Orbital 26 connects with orbital 8
    Hamiltonian value: |H(26,6353)|@R=2 =  0.102E-18 eV
    Overlap          :  S(26,6353)|@R=2 =   0.00    

Calculating all surface Green functions for: Right
 Fermi level shift in electrode (chemical potential) :       -0.50000  eV
 Atoms available    / used atoms   :      3 /      3
 Orbitals available / used orbitals:     27 /     27
 Total self-energy calculations: 10471
 Saving surface Green functions in: ts_au_111_capacitor.TSGFRight
 Estimated file size:    117.299 MB
 Lopez Sancho, Lopez Sancho & Rubio recursive surface self-energy calculation...
 Lopez Sancho, Lopez Sancho & Rubio: Mean/std iterations:     9.4612 /     6.5413
 Lopez Sancho, Lopez Sancho & Rubio: Min/Max iterations :          3 /         19
Done creating 'ts_au_111_capacitor.TSGFRight'.


                     ====================================
                        Single-point calculation
                     ====================================

superc: Internal auxiliary supercell:     9 x     9 x     3  =     243
superc: Number of atoms, orbitals, and projectors:   2430  21870  46170

outcell: Unit cell vectors (Ang):
        2.923110    0.000000    0.000000
        1.461555    2.531488    0.000000
        0.000000    0.000000   31.027221

outcell: Cell vector modules (Ang)   :    2.923110    2.923110   31.027221
outcell: Cell angles (23,13,12) (deg):     90.0000     90.0000     60.0000
outcell: Cell volume (Ang**3)        :    229.5957
<dSpData1D:S at geom step 0
  <sparsity:sparsity for geom step 0
    nrows_g=90 nrows=16 sparsity=2.2380 nnzs=18128, refcount: 7>
  <dData1D:(new from dSpData1D) n=18128, refcount: 1>
refcount: 1>
new_DM -- step:     1
Initializing Density Matrix...

Attempting to read DM, EDM from TSDE file... Failed...
Attempting to read DM from file... Failed...
DM filled with atomic data:
<dSpData2D:DM initialized from atoms
  <sparsity:sparsity for geom step 0
    nrows_g=90 nrows=16 sparsity=2.2380 nnzs=18128, refcount: 8>
  <dData2D:DM n=18128 m=1, refcount: 1>
refcount: 1>

transiesta: Initialization run using siesta

ts: We highly recommend you to perform 0-bias calculations before *any* bias calculations

No. of atoms with KB's overlaping orbs in proc 0. Max # of overlaps:      60     237
New grid distribution:   1
           1       1:   15    1:    8    1:   60
           2       1:   15    1:    8   61:  120
           3       1:   15    1:    8  121:  180
           4       1:   15    9:   15    1:   60
           5       1:   15    9:   15   61:  120
           6       1:   15    9:   15  121:  180

InitMesh: MESH =    30 x    30 x   360 =      324000
InitMesh: (bp) =    15 x    15 x   180 =       40500
InitMesh: Mesh cutoff (required, used) =   350.000   372.067 Ry
ExtMesh (bp) on 0 =   107 x   100 x   152 =     1626400
New grid distribution:   2
           1       1:   15    1:   15  138:  158
           2       1:   15    1:   15   44:  115
           3       1:   15    1:   15  159:  180
           4       1:   15    1:   15   23:   43
           5       1:   15    1:   15    1:   22
           6       1:   15    1:   15  116:  137
New grid distribution:   3
           1       1:   15    1:   15    1:   28
           2       1:   15    1:   15   57:   96
           3       1:   15    1:   15  153:  180
           4       1:   15    1:   15   29:   56
           5       1:   15    1:   15   97:  124
           6       1:   15    1:   15  125:  152
Setting up quadratic distribution...
ExtMesh (bp) on 0 =   107 x   107 x   113 =     1293737
PhiOnMesh: Number of (b)points on node 0 =                 4725
PhiOnMesh: nlist on node 0 =               386441

ts-voltage: Ramp  0.500 eV to -0.500 eV placed in cell
ts-Vha: -0.11478194E-05 eV
cdiag-debug: jobz=N, algo= 5, Node=    2, work=        2970, rwork=         630, iwork=         450
cdiag-debug: jobz=N, algo= 5, Node=    3, work=        2970, rwork=         630, iwork=         450
cdiag-debug: jobz=N, algo= 5, Node=    4, work=        2970, rwork=         630, iwork=         450
cdiag-debug: jobz=N, algo= 5, Node=    0, work=        2970, rwork=         630, iwork=         450
cdiag-debug: jobz=N, algo= 5, Node=    1, work=        2970, rwork=         630, iwork=         450
cdiag-debug: jobz=N, algo= 5, Node=    5, work=        2970, rwork=         630, iwork=         450

stepf: Fermi-Dirac step function
cdiag-debug: jobz=V, algo= 5, Node=    4, work=        2970, rwork=         630, iwork=         450
cdiag-debug: jobz=V, algo= 5, Node=    2, work=        2970, rwork=         630, iwork=         450
cdiag-debug: jobz=V, algo= 5, Node=    3, work=        2970, rwork=         630, iwork=         450
cdiag-debug: jobz=V, algo= 5, Node=    0, work=        2970, rwork=         630, iwork=         450
cdiag-debug: jobz=V, algo= 5, Node=    1, work=        2970, rwork=         630, iwork=         450
cdiag-debug: jobz=V, algo= 5, Node=    5, work=        2970, rwork=         630, iwork=         450
ts-Vha: -0.13710843E+02 eV

siesta: Program's energy decomposition (eV):
siesta: Ebs     =       166.986679
siesta: Eions   =     11712.249174
siesta: Ena     =       583.627907
siesta: Ekin    =      6219.963954
siesta: Enl     =     -2861.933826
siesta: Eso     =         0.000000
siesta: Edftu   =         0.000000
siesta: DEna    =       117.274195
siesta: DUscf   =        11.470129
siesta: DUext   =         0.000000
siesta: Exc     =     -1398.382825
siesta: eta*DQ  =         0.000000
siesta: Emadel  =         0.000000
siesta: Emeta   =         0.000000
siesta: Emolmec =         0.000000
siesta: Ekinion =         0.000000
siesta: Eharris =     -9025.110194
siesta: Etot    =     -9040.229639
siesta: FreeEng =     -9040.231363

        iscf     Eharris(eV)        E_KS(eV)     FreeEng(eV)     dDmax    Ef(eV) dHmax(eV)
   scf:    1    -9025.110194    -9040.229639    -9040.231363  0.237449 -2.582722 21.456006
timer: Routine,Calls,Time,% = IterSCF        1       2.651  40.29
ts-Vha:  0.12683218E+02 eV
   scf:    2    -9031.653943    -9040.214894    -9040.216725  0.050530 -2.341927 23.510221
ts-Vha:  0.12862546E+00 eV
   scf:    3    -9043.833689    -9042.945169    -9042.947072  0.030586 -2.513317  5.147231
ts-Vha: -0.38608765E+01 eV
   scf:    4    -9043.548894    -9043.368752    -9043.370606  0.013192 -2.561513  4.368201
ts-Vha:  0.59339780E+01 eV
   scf:    5    -9042.514848    -9043.483001    -9043.485630  0.035074 -2.471073 12.851244
ts-Vha: -0.56108136E+02 eV
   scf:    6    -8920.178504    -9006.288884    -9006.290715  0.140339 -3.407272 91.173780
ts-Vha: -0.15898702E+02 eV
   scf:    7    -9056.282946    -9041.727852    -9041.731493  0.093221 -2.694798 23.827941
ts-Vha: -0.28809656E+02 eV
   scf:    8    -9027.184969    -9035.594612    -9035.596517  0.053061 -2.961812 42.631938
ts-Vha: -0.28011869E+02 eV
   scf:    9    -9036.676221    -9036.165969    -9036.167524  0.013757 -3.033009 41.010237
ts-Vha: -0.81310909E+01 eV
   scf:   10    -9048.222965    -9044.583944    -9044.587744  0.076524 -2.856106 11.465094
ts-Vha: -0.11251532E+02 eV
   scf:   11    -9043.083856    -9043.895662    -9043.899570  0.009096 -2.896378 16.678312
ts-Vha: -0.32284099E+01 eV
   scf:   12    -9045.634002    -9045.168296    -9045.172055  0.025133 -2.800148  3.761919
ts-Vha: -0.22364498E+01 eV
   scf:   13    -9045.244666    -9045.213293    -9045.217058  0.005425 -2.793903  2.188333
ts-Vha: -0.12584338E+01 eV
   scf:   14    -9045.220739    -9045.224742    -9045.228656  0.008334 -2.761051  0.522492
ts-Vha: -0.12381349E+01 eV
   scf:   15    -9045.226828    -9045.225799    -9045.229709  0.000528 -2.761952  0.509160
ts-Vha: -0.12308295E+01 eV
   scf:   16    -9045.230080    -9045.227964    -9045.231861  0.000886 -2.764017  0.479718
ts-Vha: -0.10316118E+01 eV
   scf:   17    -9045.245259    -9045.237290    -9045.241153  0.003714 -2.768812  0.160337
ts-Vha: -0.94230514E+00 eV
   scf:   18    -9045.245971    -9045.241895    -9045.245773  0.001804 -2.772584  0.122318
ts-Vha: -0.92820907E+00 eV
   scf:   19    -9045.248864    -9045.245768    -9045.249679  0.002979 -2.784586  0.147383
ts-Vha: -0.98311925E+00 eV
   scf:   20    -9045.246702    -9045.246321    -9045.250239  0.000994 -2.789332  0.072562
ts-Vha: -0.98363180E+00 eV
   scf:   21    -9045.246700    -9045.246519    -9045.250436  0.000518 -2.789276  0.074645
ts-Vha: -0.10040595E+01 eV
   scf:   22    -9045.247096    -9045.246827    -9045.250739  0.001237 -2.789243  0.052853
ts-Vha: -0.10104766E+01 eV
   scf:   23    -9045.247603    -9045.247371    -9045.251231  0.003488 -2.790807  0.038061
ts-Vha: -0.10198267E+01 eV
   scf:   24    -9045.247500    -9045.247438    -9045.251289  0.000263 -2.791861  0.019668
ts-Vha: -0.10113680E+01 eV
   scf:   25    -9045.247592    -9045.247532    -9045.251395  0.000753 -2.793467  0.012646
ts-Vha: -0.10091260E+01 eV
   scf:   26    -9045.247560    -9045.247546    -9045.251406  0.000089 -2.793725  0.014388
ts-Vha: -0.10105465E+01 eV
   scf:   27    -9045.247604    -9045.247577    -9045.251427  0.000279 -2.794574  0.015089
ts-Vha: -0.10130558E+01 eV
   scf:   28    -9045.247667    -9045.247623    -9045.251449  0.000799 -2.795420  0.007072
ts-Vha: -0.10128614E+01 eV
   scf:   29    -9045.247637    -9045.247630    -9045.251453  0.000094 -2.795453  0.007110
ts-Vha: -0.10137706E+01 eV
   scf:   30    -9045.247687    -9045.247661    -9045.251469  0.000513 -2.794937  0.006189
ts-Vha: -0.10125227E+01 eV
   scf:   31    -9045.247659    -9045.247660    -9045.251471  0.000081 -2.794732  0.004011
ts-Vha: -0.10123682E+01 eV
   scf:   32    -9045.247660    -9045.247661    -9045.251473  0.000043 -2.794603  0.002967
ts-Vha: -0.10109689E+01 eV
   scf:   33    -9045.247653    -9045.247657    -9045.251473  0.000121 -2.794393  0.002823
ts-Vha: -0.10110160E+01 eV
   scf:   34    -9045.247659    -9045.247658    -9045.251473  0.000027 -2.794397  0.001976
ts-Vha: -0.10114274E+01 eV
   scf:   35    -9045.247661    -9045.247659    -9045.251474  0.000031 -2.794445  0.001370
ts-Vha: -0.10116788E+01 eV
   scf:   36    -9045.247662    -9045.247661    -9045.251474  0.000028 -2.794451  0.000971

SCF Convergence by DM+H criterion
max |DM_out - DM_in|         :     0.0000281629
max |H_out - H_in|      (eV) :     0.0009713197
SCF cycle converged after 36 iterations

                     ***************************
                     *  WELCOME TO TRANSIESTA  *
                     ***************************

ts-Vha: -0.10116788E+01 eV

transiesta: created H and S sparsity pattern:
  <sparsity:(M of: G ((UC of: T T T sparsity for geom step 0)))
    nrows_g=90 nrows=90 sparsity=.2632 nnzs=2132, refcount: 1>

transiesta: created local update sparsity pattern:
  <sparsity:(M of: T T T sparsity for geom step 0)
    nrows_g=90 nrows=16 sparsity=.0000 nnzs=0, refcount: 1>

transiesta: created update sparsity pattern:
  <sparsity:G ((UC of: (M of: T T T sparsity for geom step 0)))
    nrows_g=90 nrows=90 sparsity=.0800 nnzs=648, refcount: 1>

transiesta: Determining an optimal tri-matrix using: atom+Left
transiesta: Established a near-optimal partition for the tri-diagonal matrix.
BTD partitions (4): 
  [ 22, 23, 22, 23 ]
transiesta: Matrix elements in % of full matrix:  62.49383 %

transiesta: mem of electrodes (static):                     0.07MB
transiesta: mem of global update arrays (static):           0.10MB
transiesta: mem of master node sparse arrays:               0.00MB
transiesta: mem of tri-diagonal matrices:                   0.15MB
transiesta: Total memory usage:                             0.70MB

transiesta: Charge distribution, target =    110.00000
Total charge                  [Q]  :    110.00000
Device                        [D]  :     43.69946
Left                          [E1] :     32.70107
Left                 / device [C1] :      0.30618
Right                         [E2] :     32.70106
Right                / device [C2] :      0.30618
Other                         [O]  :      0.28606
Excess charge                [dQ]  :  5.68434E-14

ts-err-D: ij(   28,    28), M = 0.78096   , ew = -.47433E-1, em = 0.47433E-1. avg_em = -.26306E-04
ts-err-E: ij(   28,    28), M = -3.3565   , ew = -.74932E-2, em = 0.74932E-2. avg_em = -.28288E-05
ts-w-q:               qP1       qP2
ts-w-q:            22.107    21.546
ts-q:         D        E1        C1        E2        C2        dQ
ts-q:    43.652    32.701     0.306    32.701     0.306 -.471E-01
ts-Vha:  0.25700680E+01 eV

siesta: Program's energy decomposition (eV):
siesta: Ebs     =     -1140.513327
siesta: Eions   =     11712.249174
siesta: Ena     =       583.627907
siesta: Ekin    =      6364.016306
siesta: Enl     =     -2949.862659
siesta: Eso     =         0.000000
siesta: Edftu   =         0.000000
siesta: DEna    =        78.353461
siesta: DUscf   =         9.185473
siesta: DUext   =         0.000000
siesta: Exc     =     -1412.666386
siesta: eta*DQ  =         0.000000
siesta: Emadel  =         0.000000
siesta: Emeta   =         0.000000
siesta: Emolmec =         0.000000
siesta: Ekinion =         0.000000
siesta: Eharris =     -9028.411842
siesta: Etot    =     -9039.595074
siesta: FreeEng =     -9039.595074
ts: E-dN      =         0.280380
ts: Band Stru =      -455.316662
ts: Kinetic   =      2542.669665
ts: Ion-elec  =    -46485.633640
ts: Eharris   =    -11082.242643
ts: Etot      =    -11093.425875
ts: FreeEng   =    -11093.425875

        iscf     Eharris(eV)        E_KS(eV)     FreeEng(eV)     dDmax    Ef(eV) dHmax(eV)
ts-scf:    1   -11082.242643   -11093.425875   -11093.425875  0.087657 -2.794451 24.510709
timer: Routine,Calls,Time,% = TS             1       0.937   1.03
ts-err-D: ij(   55,    55), M = 0.81089   , ew = 0.82147E-4, em = 0.82147E-4. avg_em = -.25573E-07
ts-err-E: ij(   28,    28), M = -2.9924   , ew = -.20173E-4, em = 0.20173E-4. avg_em = -.96275E-09
ts-w-q:               qP1       qP2
ts-w-q:            21.642    22.145
ts-q:         D        E1        C1        E2        C2        dQ
ts-q:    43.787    32.701     0.306    32.701     0.306 0.875E-01
ts-Vha: -0.55564636E+01 eV
ts-scf:    2   -11076.093967   -11095.185008   -11095.185008  0.176159 -2.794451 25.663096
ts-err-D: ij(   53,    53), M = 0.27926E-1, ew = 0.34524E-2, em = 0.34524E-2. avg_em = 0.49623E-05
ts-err-E: ij(   53,  5093), M = 0.11079E-2, ew = -.13968E-2, em = -.13968E-2. avg_em = 0.18687E-05
ts-w-q:               qP1       qP2
ts-w-q:            21.841    21.820
ts-q:         D        E1        C1        E2        C2        dQ
ts-q:    43.661    32.701     0.306    32.701     0.306 -.387E-01
ts-Vha: -0.30415476E+00 eV
ts-scf:    3   -11098.291926   -11099.060208   -11099.060208  0.091884 -2.794451  1.626560
ts-err-D: ij(   53,    53), M = 0.28139E-1, ew = 0.32181E-2, em = 0.32181E-2. avg_em = 0.66517E-05
ts-err-E: ij(   53,  5093), M = 0.11106E-2, ew = -.13434E-2, em = -.13434E-2. avg_em = 0.27281E-05
ts-w-q:               qP1       qP2
ts-w-q:            21.859    21.834
ts-q:         D        E1        C1        E2        C2        dQ
ts-q:    43.693    32.701     0.306    32.701     0.306 -.606E-02
ts-Vha: -0.83243919E+00 eV
ts-scf:    4   -11099.298944   -11099.196108   -11099.196108  0.004837 -2.794451  0.804758
ts-err-D: ij(   53,    53), M = 0.28565E-1, ew = 0.34013E-2, em = 0.34013E-2. avg_em = 0.46351E-05
ts-err-E: ij(   53,  5093), M = 0.11186E-2, ew = -.14859E-2, em = -.14859E-2. avg_em = 0.17698E-05
ts-w-q:               qP1       qP2
ts-w-q:            21.849    21.847
ts-q:         D        E1        C1        E2        C2        dQ
ts-q:    43.696    32.701     0.306    32.701     0.306 -.387E-02
ts-Vha: -0.98249739E+00 eV
ts-scf:    5   -11099.236106   -11099.225956   -11099.225956  0.005318 -2.794451  0.844746
ts-err-D: ij(   53,    53), M = 0.29094E-1, ew = 0.34627E-2, em = 0.34627E-2. avg_em = 0.45471E-05
ts-err-E: ij(   53,  5093), M = 0.11336E-2, ew = -.15584E-2, em = -.15584E-2. avg_em = 0.17791E-05
ts-w-q:               qP1       qP2
ts-w-q:            21.862    21.836
ts-q:         D        E1        C1        E2        C2        dQ
ts-q:    43.698    32.701     0.306    32.701     0.306 -.103E-02
ts-Vha: -0.92038261E+00 eV
ts-scf:    6   -11099.205049   -11099.222327   -11099.222327  0.007095 -2.794451  0.484163
ts-err-D: ij(   53,    53), M = 0.29162E-1, ew = 0.34758E-2, em = 0.34758E-2. avg_em = 0.37409E-05
ts-err-E: ij(   53,  5093), M = 0.11312E-2, ew = -.15773E-2, em = -.15773E-2. avg_em = 0.13866E-05
ts-w-q:               qP1       qP2
ts-w-q:            21.856    21.841
ts-q:         D        E1        C1        E2        C2        dQ
ts-q:    43.696    32.701     0.306    32.701     0.306 -.311E-02
ts-Vha: -0.93656044E+00 eV
ts-scf:    7   -11099.224290   -11099.225094   -11099.225094  0.001368 -2.794451  0.120385
ts-err-D: ij(   53,    53), M = 0.29281E-1, ew = 0.34467E-2, em = 0.34467E-2. avg_em = 0.34083E-05
ts-err-E: ij(   53,  5093), M = 0.11308E-2, ew = -.15853E-2, em = -.15853E-2. avg_em = 0.12381E-05
ts-w-q:               qP1       qP2
ts-w-q:            21.854    21.841
ts-q:         D        E1        C1        E2        C2        dQ
ts-q:    43.695    32.701     0.306    32.701     0.306 -.443E-02
ts-Vha: -0.90910277E+00 eV
ts-scf:    8   -11099.213290   -11099.219051   -11099.219051  0.001702 -2.794451  0.110800
ts-err-D: ij(   53,    53), M = 0.29343E-1, ew = 0.34553E-2, em = 0.34553E-2. avg_em = 0.33811E-05
ts-err-E: ij(   53,  5093), M = 0.11261E-2, ew = -.15988E-2, em = -.15988E-2. avg_em = 0.12266E-05
ts-w-q:               qP1       qP2
ts-w-q:            21.854    21.843
ts-q:         D        E1        C1        E2        C2        dQ
ts-q:    43.697    32.701     0.306    32.701     0.306 -.245E-02
ts-Vha: -0.95008846E+00 eV
ts-scf:    9   -11099.234106   -11099.227909   -11099.227909  0.000578 -2.794451  0.019890
ts-err-D: ij(   53,    53), M = 0.29345E-1, ew = 0.34551E-2, em = 0.34551E-2. avg_em = 0.33939E-05
ts-err-E: ij(   53,  5093), M = 0.11261E-2, ew = -.15988E-2, em = -.15988E-2. avg_em = 0.12330E-05
ts-w-q:               qP1       qP2
ts-w-q:            21.854    21.843
ts-q:         D        E1        C1        E2        C2        dQ
ts-q:    43.697    32.701     0.306    32.701     0.306 -.270E-02
ts-Vha: -0.94505542E+00 eV
ts-scf:   10   -11099.225591   -11099.226591   -11099.226591  0.000068 -2.794451  0.012218
ts-err-D: ij(   53,    53), M = 0.29372E-1, ew = 0.34477E-2, em = 0.34477E-2. avg_em = 0.34461E-05
ts-err-E: ij(   53,  5093), M = 0.11237E-2, ew = -.15991E-2, em = -.15991E-2. avg_em = 0.12600E-05
ts-w-q:               qP1       qP2
ts-w-q:            21.854    21.843
ts-q:         D        E1        C1        E2        C2        dQ
ts-q:    43.697    32.701     0.306    32.701     0.306 -.274E-02
ts-Vha: -0.94557952E+00 eV
ts-scf:   11   -11099.224955   -11099.225758   -11099.225758  0.000309 -2.794451  0.010399
ts-err-D: ij(   53,    53), M = 0.29390E-1, ew = 0.34404E-2, em = 0.34404E-2. avg_em = 0.35039E-05
ts-err-E: ij(   53,  5093), M = 0.11216E-2, ew = -.15981E-2, em = -.15981E-2. avg_em = 0.12890E-05
ts-w-q:               qP1       qP2
ts-w-q:            21.854    21.843
ts-q:         D        E1        C1        E2        C2        dQ
ts-q:    43.697    32.701     0.306    32.701     0.306 -.277E-02
ts-Vha: -0.94565360E+00 eV
ts-scf:   12   -11099.224478   -11099.225095   -11099.225095  0.000257 -2.794451  0.007854
ts-err-D: ij(   53,    53), M = 0.29396E-1, ew = 0.34360E-2, em = 0.34360E-2. avg_em = 0.35301E-05
ts-err-E: ij(   53,  5093), M = 0.11205E-2, ew = -.15971E-2, em = -.15971E-2. avg_em = 0.13016E-05
ts-w-q:               qP1       qP2
ts-w-q:            21.854    21.843
ts-q:         D        E1        C1        E2        C2        dQ
ts-q:    43.697    32.701     0.306    32.701     0.306 -.265E-02
ts-Vha: -0.94601963E+00 eV
ts-scf:   13   -11099.225446   -11099.225326   -11099.225326  0.000143 -2.794451  0.004458
ts-err-D: ij(   53,    53), M = 0.29406E-1, ew = 0.34288E-2, em = 0.34288E-2. avg_em = 0.35728E-05
ts-err-E: ij(   53,  5093), M = 0.11189E-2, ew = -.15951E-2, em = -.15951E-2. avg_em = 0.13228E-05
ts-w-q:               qP1       qP2
ts-w-q:            21.854    21.843
ts-q:         D        E1        C1        E2        C2        dQ
ts-q:    43.697    32.701     0.306    32.701     0.306 -.242E-02
ts-Vha: -0.94736692E+00 eV
ts-scf:   14   -11099.226140   -11099.225824   -11099.225824  0.000189 -2.794451  0.004395
ts-err-D: ij(   53,    53), M = 0.29406E-1, ew = 0.34286E-2, em = 0.34286E-2. avg_em = 0.35566E-05
ts-err-E: ij(   53,  5093), M = 0.11190E-2, ew = -.15952E-2, em = -.15952E-2. avg_em = 0.13153E-05
ts-w-q:               qP1       qP2
ts-w-q:            21.854    21.843
ts-q:         D        E1        C1        E2        C2        dQ
ts-q:    43.697    32.701     0.306    32.701     0.306 -.245E-02
ts-Vha: -0.94722095E+00 eV
ts-scf:   15   -11099.225779   -11099.225800   -11099.225800  0.000050 -2.794451  0.002151
ts-err-D: ij(   53,    53), M = 0.29408E-1, ew = 0.34271E-2, em = 0.34271E-2. avg_em = 0.35629E-05
ts-err-E: ij(   53,  5093), M = 0.11188E-2, ew = -.15947E-2, em = -.15947E-2. avg_em = 0.13186E-05
ts-w-q:               qP1       qP2
ts-w-q:            21.854    21.843
ts-q:         D        E1        C1        E2        C2        dQ
ts-q:    43.697    32.701     0.306    32.701     0.306 -.244E-02
ts-Vha: -0.94734641E+00 eV
ts-scf:   16   -11099.225802   -11099.225807   -11099.225807  0.000030 -2.794451  0.001979
ts-err-D: ij(   53,    53), M = 0.29409E-1, ew = 0.34256E-2, em = 0.34256E-2. avg_em = 0.35821E-05
ts-err-E: ij(   53,  5093), M = 0.11184E-2, ew = -.15942E-2, em = -.15942E-2. avg_em = 0.13279E-05
ts-w-q:               qP1       qP2
ts-w-q:            21.854    21.843
ts-q:         D        E1        C1        E2        C2        dQ
ts-q:    43.697    32.701     0.306    32.701     0.306 -.246E-02
ts-Vha: -0.94729329E+00 eV
ts-scf:   17   -11099.225537   -11099.225659   -11099.225659  0.000056 -2.794451  0.001210
ts-err-D: ij(   53,    53), M = 0.29408E-1, ew = 0.34262E-2, em = 0.34262E-2. avg_em = 0.35834E-05
ts-err-E: ij(   53,  5093), M = 0.11185E-2, ew = -.15944E-2, em = -.15944E-2. avg_em = 0.13284E-05
ts-w-q:               qP1       qP2
ts-w-q:            21.854    21.843
ts-q:         D        E1        C1        E2        C2        dQ
ts-q:    43.697    32.701     0.306    32.701     0.306 -.246E-02
ts-Vha: -0.94722567E+00 eV
ts-scf:   18   -11099.225665   -11099.225658   -11099.225658  0.000007 -2.794451  0.001031
ts-err-D: ij(   53,    53), M = 0.29406E-1, ew = 0.34270E-2, em = 0.34270E-2. avg_em = 0.35958E-05
ts-err-E: ij(   53,  5093), M = 0.11185E-2, ew = -.15946E-2, em = -.15946E-2. avg_em = 0.13342E-05
ts-w-q:               qP1       qP2
ts-w-q:            21.854    21.843
ts-q:         D        E1        C1        E2        C2        dQ
ts-q:    43.697    32.701     0.306    32.701     0.306 -.246E-02
ts-Vha: -0.94731366E+00 eV
ts-scf:   19   -11099.225865   -11099.225762   -11099.225762  0.000036 -2.794451  0.000581

SCF Convergence by DM+H+dQ criterion
max |DM_out - DM_in|         :     0.0000360608
max |H_out - H_in|      (eV) :     0.0005809680
     Q(TS) - Q(dev)          :    -0.0024572795
SCF cycle converged after 19 iterations

Using DM_out to compute the final energy and forces
No. of atoms with KB's overlaping orbs in proc 0. Max # of overlaps:      60     237
ts-Vha: -0.94731366E+00 eV

siesta: E_KS(eV) =            -9045.1203

siesta: E_KS - E_eggbox =     -9045.1203

siesta: Atomic forces (eV/Ang):
----------------------------------------
   Tot    0.000000   -0.000000    0.168147
----------------------------------------
   Max    0.245791
   Res    0.063509    sqrt( Sum f_i^2 / 3N )
----------------------------------------
   Max    0.245791    constrained

ts: Atomic forces (eV/Ang):
----------------------------------------
   Tot    0.000000    0.000000    0.051764
----------------------------------------
   Max    0.245791
   Res    0.067790    sqrt( Sum f_i^2 / 3N )
----------------------------------------
   Max    0.245791    constrained

Stress tensor Voigt[x,y,z,yz,xz,xy] (kbar):       38.71       38.71       27.48        0.00        0.00        0.00
(Free)E + p*V (eV/cell)    -9050.1316
Target enthalpy (eV/cell)    -9045.1203

mulliken: Atomic and Orbital Populations:

Species: Au                  
Atom  Qatom  Qorb
               6s      5dxy    5dyz    5dz2    5dxz    5dx2-y2 6Ppy    6Ppz    
               6Ppx    
   1 11.002   1.007   1.907   1.918   1.893   1.918   1.907   0.151   0.149
              0.151
   2 10.996   0.998   1.906   1.923   1.889   1.923   1.906   0.150   0.152
              0.150
   3 10.999   1.005   1.909   1.919   1.890   1.919   1.909   0.151   0.146
              0.151
   4 10.976   0.989   1.907   1.927   1.888   1.927   1.907   0.146   0.136
              0.146
   5 11.032   1.062   1.891   1.938   1.926   1.938   1.891   0.138   0.112
              0.138
   6 11.021   1.058   1.891   1.938   1.926   1.938   1.891   0.137   0.106
              0.137
   7 10.974   0.988   1.908   1.928   1.888   1.928   1.908   0.146   0.136
              0.146
   8 10.999   1.005   1.909   1.919   1.890   1.919   1.909   0.151   0.146
              0.151
   9 10.996   0.998   1.906   1.923   1.889   1.923   1.906   0.150   0.152
              0.150
  10 11.002   1.007   1.907   1.918   1.893   1.918   1.907   0.151   0.149
              0.151

mulliken: Qtot =      109.998

transiesta: Charge distribution, target =    110.00000
Total charge                  [Q]  :    109.99754
Device                        [D]  :     43.69700
Left                          [E1] :     32.70107
Left                 / device [C1] :      0.30618
Right                         [E2] :     32.70106
Right                / device [C2] :      0.30618
Other                         [O]  :      0.28606
Excess charge                [dQ]  : -2.45728E-03


coxmol: Writing XMOL coordinates into file ts_au_111_capacitor.xyz                                             

siesta: Program's energy decomposition (eV):
siesta: Ebs     =      -762.681784
siesta: Eions   =     11712.249174
siesta: Ena     =       583.627907
siesta: Ekin    =      6367.308206
siesta: Enl     =     -2951.374751
siesta: Eso     =         0.000000
siesta: Edftu   =         0.000000
siesta: DEna    =        77.251230
siesta: DUscf   =         3.784121
siesta: DUext   =         0.000000
siesta: Exc     =     -1413.467803
siesta: eta*DQ  =         0.000000
siesta: Emadel  =         0.000000
siesta: Emeta   =         0.000000
siesta: Emolmec =         0.000000
siesta: Ekinion =         0.000000
siesta: Eharris =     -9045.120367
siesta: Etot    =     -9045.120264
siesta: FreeEng =     -9045.120264
ts: E-dN      =         0.005684
ts: Band Stru =      -296.701983
ts: Kinetic   =      2545.961565
ts: Ion-elec  =    -46877.482155
ts: Eharris   =    -11099.225865
ts: Etot      =    -11099.225762
ts: FreeEng   =    -11099.225762

siesta: Final energy (eV):
siesta:  Band Struct. =    -762.681784
siesta:       Kinetic =    6367.308206
siesta:       Hartree =   21682.819894
siesta:       Edftu   =       0.000000
siesta:       Eso     =       0.000000
siesta:    Ext. field =       0.000000
siesta:   Exch.-corr. =   -1413.467803
siesta:  Ion-electron =  -48644.717614
siesta:       Ion-ion =   12962.937053
siesta:       Ekinion =       0.000000
siesta:         Total =   -9045.120264
ts:         E-dN  =       0.005684
ts:     Band Stru =    -296.701983
ts:       Kinetic =    2545.961565
ts:      Ion-elec =  -46877.482155
ts:         Total =  -11099.225762
siesta:         Fermi =      -2.794451

siesta: Atomic forces (eV/Ang):
siesta:      1    0.000000   -0.000000    0.149217
siesta:      2   -0.000000   -0.000000    0.007421
siesta:      3   -0.000000    0.000000    0.014861
siesta:      4    0.000000   -0.000000   -0.187499
siesta:      5    0.000000   -0.000000   -0.024661
siesta:      6   -0.000000    0.000000    0.018132
siesta:      7    0.000000    0.000000    0.245791
siesta:      8    0.000000   -0.000000   -0.021230
siesta:      9    0.000000   -0.000000    0.004634
siesta:     10    0.000000    0.000000   -0.038520
siesta: ----------------------------------------
siesta:    Tot    0.000000   -0.000000    0.168147

ts: Atomic forces (eV/Ang):
ts:      1    0.000000    0.000000    0.000000
ts:      2    0.000000    0.000000    0.000000
ts:      3    0.000000    0.000000    0.000000
ts:      4    0.000000   -0.000000   -0.187499
ts:      5    0.000000   -0.000000   -0.024661
ts:      6   -0.000000    0.000000    0.018132
ts:      7    0.000000    0.000000    0.245791
ts:      8    0.000000    0.000000    0.000000
ts:      9    0.000000    0.000000    0.000000
ts:     10    0.000000    0.000000    0.000000
ts: ----------------------------------------
ts:    Tot    0.000000    0.000000    0.051764

siesta: Stress tensor (static) (eV/Ang**3):
siesta:     0.024163    0.000000    0.000000
siesta:     0.000000    0.024163    0.000000
siesta:     0.000000    0.000000    0.017154

siesta: Cell volume =        229.595743 Ang**3

siesta: Pressure (static):
siesta:                Solid            Molecule  Units
siesta:          -0.00023772         -0.00024152  Ry/Bohr**3
siesta:          -0.02182669         -0.02217576  eV/Ang**3
siesta:         -34.97058362        -35.52987498  kBar
(Free)E+ p_basis*V_orbitals  =       -9038.191028
(Free)Eharris+ p_basis*V_orbitals  =       -9038.191131
ts-Vha: -0.94731366E+00 eV

dhscf: Vacuum level (max, mean) =    2.365286    2.183757 eV

cite: Please see "ts_au_111_capacitor.bib" for an exhaustive BiBTeX file.
cite: Please clearly indicate Siesta version in published work: v4.1.5-1-g384057250
cite: This calculation has made use of the following articles
cite: which are encouraged to be cited in a published work.
        Primary SIESTA paper
          DOI: www.doi.org/10.1088/0953-8984/14/11/302
        Primary TranSiesta paper
          DOI: www.doi.org/10.1103/PhysRevB.65.165401
        TranSiesta N-electrode
          DOI: www.doi.org/10.1016/j.cpc.2016.09.022

>> End of run:   3-NOV-2021  22:01:53
Job completed
