Siesta Version  : 5.0.0-alpha-56-g943f9ccc9
Architecture    : x86_64-linux-gcc
Compiler version: GNU Fortran (GCC) 11.2.0
Compiler flags  : mpifort -m64 -fPIC -O3 -ftree-vectorize -fexpensive-optimizations -funroll-loops -fprefetch-loop-arrays -fgraphite -fipa-icf -fipa-pure-const -march=native -fschedule-fusion -fselective-scheduling -fstack-arrays -fmax-stack-var-size=10000 -fipa-sra -fipa-cp -fcheck=recursion,array-temps -fno-second-underscore -Wrealloc-lhs -Wrealloc-lhs-all -fallow-argument-mismatch -fcheck-array-temporaries -Warray-temporaries -fcheck=array-temps
PP flags        : -DSIESTA__DEV_INFO -DSIESTA__FLOOK -DSIESTA__METIS -DSIESTA__FFTW -DTS_PVT_METIS -DSIESTA__MRRR -DSIESTA__SCALAPACK_RESET -DMPI -DFC_HAVE_FLUSH -DFC_HAVE_ABORT -DCDF -DGRID_DP -DMPI_TIMING -DTRANSIESTA_TIMING -DTBTRANS_TIMING -D1 -DNCDF_PARALLEL -DNCDF -DNCDF_4 -DSCALAPACK_DEBUG -D_DIAG_WORK -DSIESTA__DIAG_2STAGE -DSIESTA__ELPA
Libraries       : libncdf.a libfdict.a  -lzmumps -lmumps_common -lpord -lparmetis -lmetis -lesmumps -lscotch -lscotcherr -L/opt/gnu/11.2.0/elpa/2020.05.001/lib -Wl,-rpath=/opt/gnu/11.2.0/elpa/2020.05.001/lib -lelpa -L/opt/gnu/11.2.0/scalapack-debug/2.1.0/lib -Wl,-rpath=/opt/gnu/11.2.0/scalapack-debug/2.1.0/lib -lscalapack  -L/opt/gnu/11.2.0/openblas/0.3.18/lib -Wl,-rpath=/opt/gnu/11.2.0/openblas/0.3.18/lib -lopenblas -L/home/nicpa/codes/flook/obj -lflookall -ldl -l:libnetcdff.so  -m64 -fPIC -O3 -ftree-vectorize -fexpensive-optimizations -funroll-loops -fprefetch-loop-arrays -fgraphite -fipa-icf -fipa-pure-const -march=native -fschedule-fusion -fselective-scheduling -fstack-arrays -fmax-stack-var-size=10000 -fipa-sra -fipa-cp -fcheck=recursion,array-temps -fno-second-underscore -Wrealloc-lhs -Wrealloc-lhs-all -fallow-argument-mismatch -fcheck-array-temporaries -Warray-temporaries -fcheck=array-temps -L/opt/gnu/11.2.0/fftw/3.3.10/lib -Wl,-rpath=/opt/gnu/11.2.0/fftw/3.3.10/lib -lfftw3
Parallelisations: MPI
NetCDF support
NetCDF-4 support
NetCDF-4 MPI-IO support
METIS ordering support
Lua support

Runtime information:
* Directory : /home/nicpa/siesta/siesta/Obj/Tests/TranSiesta-TBTrans/ts_au_100/work/Elec_ts_au_100_elec_1x1
* Running on 6 nodes in parallel.
>> Start of run:  29-APR-2022   9:34:09

                           *********************** 
                           *  WELCOME TO SIESTA  * 
                           *********************** 

reinit: Reading from file ts_au_100_elec_1x1.fdf

reinit: -----------------------------------------------------------------------
reinit: System Name: Au electrode (100
reinit: -----------------------------------------------------------------------
reinit: System Label: ts_au_100_elec_1x1
reinit: -----------------------------------------------------------------------

initatom: Reading input for the pseudopotentials and atomic orbitals ----------
Species number:   1 Atomic number:   79 Label: Au


 ---- Processing specs for species: Au
Ground state valence configuration:   6s01  5d10
Reading pseudopotential information in formatted form from Au.psf

---- Pseudopotential check for Au

Pseudopotential generated from a fully relativistic atomic calculation
There are spin-orbit semi-local pseudopotentials available

Pseudized shells:
6s( 1.00) rc: 2.29
6p( 0.00) rc: 3.14
5d(10.00) rc: 1.20
5f( 0.00) rc: 3.14
Valence configuration for ps generation: (assumed as above)
For Au, standard SIESTA heuristics set lmxkb to 3
 (one more than the basis l, including polarization orbitals).
Use PS.lmax or PS.KBprojectors blocks to override.

<basis_specs>
===============================================================================
Au                   Z=  79    Mass=  196.97        Charge= 0.17977+309
Lmxo=2 Lmxkb= 3    BasisType=split      Semic=F
L=0  Nsemic=0  Cnfigmx=6
          i=1  nzeta=1  polorb=1  (6s)  (to be polarized perturbatively)
            splnorm:   0.15000    
               vcte:    0.0000    
               rinn:    0.0000    
               qcoe:    0.0000    
               qyuk:    0.0000    
               qwid:   0.10000E-01
                rcs:    0.0000    
            lambdas:    1.0000    
L=1  Nsemic=0  Cnfigmx=6
          i=1  nzeta=0  polorb=0  (6p)  (perturbative polarization orbital) (from 6s)
L=2  Nsemic=0  Cnfigmx=5
          i=1  nzeta=1  polorb=0  (5d)
            splnorm:   0.15000    
               vcte:    0.0000    
               rinn:    0.0000    
               qcoe:    0.0000    
               qyuk:    0.0000    
               qwid:   0.10000E-01
                rcs:    0.0000    
            lambdas:    1.0000    
-------------------------------------------------------------------------------
L=0  Nkbl=1  erefs: 0.17977+309
L=1  Nkbl=1  erefs: 0.17977+309
L=2  Nkbl=1  erefs: 0.17977+309
L=3  Nkbl=1  erefs: 0.17977+309
===============================================================================
</basis_specs>

atom: Called for Au                    (Z =  79)

read_vps: Pseudopotential generation method:
read_vps: ATM3      Troullier-Martins                       
Valence charge in pseudo generation:   11.00000

read_vps: Pseudopotential includes a core correction:
read_vps: Pseudo-core for xc-correction

xc_check: Exchange-correlation functional:
xc_check: GGA Perdew, Burke & Ernzerhof 1996
V l=0 = -2*Zval/r beyond r=  2.9833
V l=1 = -2*Zval/r beyond r=  3.1363
V l=2 = -2*Zval/r beyond r=  2.9833
V l=3 = -2*Zval/r beyond r=  3.1363
All V_l potentials equal beyond r=  3.0973
This should be close to max(r_c) in ps generation
All pots = -2*Zval/r beyond r=  3.1363
Using small-core scheme (local charge) for Vlocal

VLOCAL_FROM_CHLOCAL: 99.0% of the norm of Vloc inside      4.525 Ry
VLOCAL_FROM_CHLOCAL: 99.9% of the norm of Vloc inside     10.312 Ry
atom: Maximum radius for chlocal:    3.73611
atom: Maximum radius for r*vlocal+2*Zval:    3.46615

KBgen: Kleinman-Bylander projectors: 
GHOST: No ghost state for L =  0
   l= 0   rc=  3.423088   el= -0.421435   Ekb=  5.114239   kbcos=  0.182513
GHOST: No ghost state for L =  1
   l= 1   rc=  3.553892   el= -0.058080   Ekb=  1.612319   kbcos=  0.221966
GHOST: No ghost state for L =  2
   l= 2   rc=  3.256140   el= -0.508574   Ekb= -6.472599   kbcos= -0.707183
GHOST: No ghost state for L =  3
   l= 3   rc=  3.643860   el=  0.003083   Ekb= -1.026026   kbcos= -0.026089

KBgen: Total number of Kleinman-Bylander projectors:  16
atom: -------------------------------------------------------------------------

atom: SANKEY-TYPE ORBITALS:

SPLIT: Orbitals with angular momentum L= 0

SPLIT: Basis orbitals for state 6s

SPLIT: PAO cut-off radius determined from an
SPLIT: energy shift=  0.005000 Ry

   izeta = 1
                 lambda =    1.000000
                     rc =    7.246712
                 energy =   -0.416422
                kinetic =    0.363232
    potential(screened) =   -0.779654
       potential(ionic) =   -8.332754

SPLIT: Orbitals with angular momentum L= 2

SPLIT: Basis orbitals for state 5d

SPLIT: PAO cut-off radius determined from an
SPLIT: energy shift=  0.005000 Ry

   izeta = 1
                 lambda =    1.000000
                     rc =    5.106662
                 energy =   -0.503595
                kinetic =    4.974612
    potential(screened) =   -5.478207
       potential(ionic) =  -15.919605

POLgen: Perturbative polarization orbital with L=  1

POLgen: Polarization orbital for state 6s

   izeta = 1
                     rc =    7.246712
                 energy =   -0.086468
                kinetic =    0.638528
    potential(screened) =   -0.724996
       potential(ionic) =   -7.799440
atom: Total number of Sankey-type orbitals:  9

atm_pop: Valence configuration (for local Pseudopot. screening):
 6s( 1.00)                                                            
 6p( 0.00)                                                            
 5d(10.00)                                                            
Vna: chval, zval:   11.00000  11.00000

Vna:  Cut-off radius for the neutral-atom potential:   7.246712
comcore: Pseudo-core radius Rcore=  4.027091

atom: _________________________________________________________________________

prinput: Basis input 
* WARNING: This information might be incomplete!!!
----------------------------------------------------------

PAO.BasisType split     

%block ChemicalSpeciesLabel
    1   79 Au                      # Species index, atomic number, species label
%endblock ChemicalSpeciesLabel

%block PAO.Basis                 # Define Basis set
# WARNING: This information might be incomplete!!!
Au                    2                    # Species label, number of l-shells
 n=6   0   1 P   1                   # n, l, Nzeta, Polarization, NzetaPol
   7.247   
   1.000   
 n=5   2   1                         # n, l, Nzeta 
   5.107   
   1.000   
%endblock PAO.Basis

prinput: ----------------------------------------------------------------------

Dumping basis to NetCDF file Au.ion.nc
coor:   Atomic-coordinates input format  =     Cartesian coordinates
coor:                                          (in Angstroms)

siesta: WARNING: XV file not found

siesta: Atomic coordinates (Bohr) and species
siesta:      0.00000   0.00000   0.00000  1        1
siesta:      2.72472   2.72472   3.85334  1        2
siesta:      0.00000   0.00000   7.70668  1        3
siesta:      2.72472   2.72472  11.56003  1        4

siesta: System type = bulk      

initatomlists: Number of atoms, orbitals, and projectors:      4    36    64

coxmol: Writing XMOL coordinates into file ts_au_100_elec_1x1.xyz                                                                                                                                                                                                              

siesta: ******************** Simulation parameters ****************************
siesta:
siesta: The following are some of the parameters of the simulation.
siesta: A complete list of the parameters used, including default values,
siesta: can be found in file out.fdf
siesta:
redata: Spin configuration                          = none
redata: Number of spin components                   = 1
redata: Time-Reversal Symmetry                      = T
redata: Spin spiral                                 = F
redata: Long output                                 =   F
redata: Number of Atomic Species                    =        1
redata: Charge density info will appear in .RHO file
redata: Write Mulliken Pop.                         = Atomic and Orbital charges
redata: Matel table size (NRTAB)                    =     1024
redata: Mesh Cutoff                                 =   300.0000 Ry
redata: Net charge of the system                    =     0.0000 |e|
redata: Min. number of SCF Iter                     =        0
redata: Max. number of SCF Iter                     =      300
redata: SCF convergence failure will abort job
redata: SCF mix quantity                            = Hamiltonian
redata: Mix DM or H after convergence               =   F
redata: Recompute H after scf cycle                 =   F
redata: Mix DM in first SCF step                    =   T
redata: Write Pulay info on disk                    =   F
redata: New DM Occupancy tolerance                  = 0.000000000001
redata: No kicks to SCF
redata: DM Mixing Weight for Kicks                  =     0.5000
redata: Require Harris convergence for SCF          =   F
redata: Harris energy tolerance for SCF             =     0.000100 eV
redata: Require DM convergence for SCF              =   T
redata: DM tolerance for SCF                        =     0.000100
redata: Require EDM convergence for SCF             =   F
redata: EDM tolerance for SCF                       =     0.001000 eV
redata: Require H convergence for SCF               =   T
redata: Hamiltonian tolerance for SCF               =     0.001000 eV
redata: Require (free) Energy convergence for SCF   =   F
redata: (free) Energy tolerance for SCF             =     0.000100 eV
redata: Using Saved Data (generic)                  =   F
redata: Use continuation files for DM               =   T
redata: Neglect nonoverlap interactions             =   F
redata: Method of Calculation                       = Diagonalization
redata: Electronic Temperature                      =   299.9869 K
redata: Fix the spin of the system                  =   F
redata: Max. number of TDED Iter                    =        1
redata: Number of TDED substeps                     =        3
redata: Dynamics option                             = Single-point calculation
mix.SCF: Pulay mixing                            = Pulay
mix.SCF:    Variant                              = stable
mix.SCF:    History steps                        = 5
mix.SCF:    Linear mixing weight                 =     0.050000
mix.SCF:    Mixing weight                        =     0.050000
mix.SCF:    SVD condition                        = 0.1000E-07
redata: Save all siesta data in one NC              =   F
redata: ***********************************************************************

%block SCF.Mixers
  Pulay
%endblock SCF.Mixers

%block SCF.Mixer.Pulay
  # Mixing method
  method pulay
  variant stable

  # Mixing options
  weight 0.0500
  weight.linear 0.0500
  history 5
%endblock SCF.Mixer.Pulay

DM_history_depth set to one: no extrapolation allowed by default for geometry relaxation
Size of DM history Fstack: 1
Total number of electrons:    44.000000
Total ionic charge:    44.000000

* ProcessorY, Blocksize:    1   6


* Orbital distribution balance (max,min):     6     6

k-point displ. along   1 input, could be:     0.00    0.50
k-point displ. along   2 input, could be:     0.00    0.50
k-point displ. along   3 input, could be:     0.00    0.50
 Kpoints in:          216 . Kpoints trimmed:          204

siesta: k-grid: Number of k-points =       204
siesta: k-points from Monkhorst-Pack grid
siesta: k-cutoff (effective) =     8.651 Ang
siesta: k-point supercell and displacements
siesta: k-grid:    6   0   0      0.000
siesta: k-grid:    0   6   0      0.000
siesta: k-grid:    0   0  10      0.000

diag: Algorithm                                     = D&C
diag: Parallel over k                               =   F
diag: Use parallel 2D distribution                  =   T
diag: Parallel block-size                           = 6
diag: Parallel distribution                         =     2 x     3
diag: Used triangular part                          = Lower
diag: Absolute tolerance                            =  0.100E-15
diag: Orthogonalization factor                      =  0.100E-05
diag: Memory factor                                 =  1.0000

superc: Internal auxiliary supercell:     7 x     7 x     3  =     147
superc: Number of atoms, orbitals, and projectors:    588   5292   9408


ts: **************************************************************
ts: Save H and S matrices                           =    T
ts: Save DM and EDM matrices                        =    T
ts: Only save the overlap matrix S                  =    F
ts: **************************************************************

************************ Begin: TS CHECKS AND WARNINGS ************************
************************ End: TS CHECKS AND WARNINGS **************************


                     ====================================
                        Single-point calculation
                     ====================================

superc: Internal auxiliary supercell:     7 x     7 x     3  =     147
superc: Number of atoms, orbitals, and projectors:    588   5292   9408

outcell: Unit cell vectors (Ang):
        2.883720    0.000000    0.000000
        0.000000    2.883720    0.000000
        0.000000    0.000000    8.156400

outcell: Cell vector modules (Ang)   :    2.883720    2.883720    8.156400
outcell: Cell angles (23,13,12) (deg):     90.0000     90.0000     90.0000
outcell: Cell volume (Ang**3)        :     67.8273
<dSpData1D:S at geom step 0
  <sparsity:sparsity for geom step 0
    nrows_g=36 nrows=6 sparsity=5.5910 nnzs=7246, refcount: 7>
  <dData1D:(new from dSpData1D) n=7246, refcount: 1>
refcount: 1>
new_DM -- step:     1
Initializing Density Matrix...

Attempting to read DM from file... Failed...
DM filled with atomic data:
<dSpData2D:DM initialized from atoms
  <sparsity:sparsity for geom step 0
    nrows_g=36 nrows=6 sparsity=5.5910 nnzs=7246, refcount: 8>
  <dData2D:DM n=7246 m=1, refcount: 1>
refcount: 1>
No. of atoms with KB's overlaping orbs in proc 0. Max # of overlaps:      43     267

InitMesh: MESH = 32 x 32 x 90 = 92160
InitMesh: (bp) =    16 x    16 x    45 =       11520
InitMesh: Mesh cutoff (required, used) =   300.000   336.504 Ry
New grid distribution [1]: sub = 2
           1       1:   16    1:   16    1:    8
           2       1:   16    1:   16    9:   16
           3       1:   16    1:   16   17:   24
           4       1:   16    1:   16   25:   31
           5       1:   16    1:   16   32:   38
           6       1:   16    1:   16   39:   45
ExtMesh (bp) on 0 =   104 x   104 x    96 =     1038336
New grid distribution [2]: sub = 2
           1       1:   16    9:   16   31:   45
           2       1:   16    1:    8    8:   22
           3       1:   16    1:   16    1:    7
           4       1:   16    1:   16   23:   30
           5       1:   16    9:   16    8:   22
           6       1:   16    1:    8   31:   45
New grid distribution [3]: sub = 2
           1       1:   16    1:   16    1:    8
           2       1:   16    9:   16    9:   23
           3       1:   16    1:    8    9:   23
           4       1:   16    1:   16   24:   30
           5       1:   16    1:    8   31:   45
           6       1:   16    9:   16   31:   45
Setting up quadratic distribution...
ExtMesh (bp) on 0 =   104 x    96 x   103 =     1028352
PhiOnMesh: Number of (b)points on node 0 =                 1920
PhiOnMesh: nlist on node 0 =               163093
cdiag-debug: jobz=V, algo= 1, Node=    1, work=         324, rwork=         973, iwork=         278
cdiag-debug: jobz=V, algo= 1, Node=    2, work=         324, rwork=         973, iwork=         278
cdiag-debug: jobz=V, algo= 1, Node=    3, work=         324, rwork=         973, iwork=         278
cdiag-debug: jobz=V, algo= 1, Node=    4, work=         324, rwork=         973, iwork=         278
cdiag-debug: jobz=V, algo= 1, Node=    5, work=         324, rwork=         973, iwork=         278
cdiag-debug: jobz=V, algo= 1, Node=    0, work=         324, rwork=         973, iwork=         278

stepf: Fermi-Dirac step function

siesta: Program's energy decomposition (eV):
siesta: Ebs     =      -339.784131
siesta: Eions   =      3801.028149
siesta: Ena     =        13.426793
siesta: Ekin    =      2560.757375
siesta: Enl     =     -1649.054985
siesta: Eso     =         0.000000
siesta: Edftu   =         0.000000
siesta: DEna    =         5.150611
siesta: DUscf   =         3.052652
siesta: DUext   =         0.000000
siesta: Ex      =     -2699.288273
siesta: Ec      =      -165.719109
siesta: Exc     =     -2865.007382
siesta: eta*DQ  =         0.000000
siesta: Emadel  =         0.000000
siesta: Emeta   =         0.000000
siesta: Emolmec =         0.000000
siesta: Ekinion =         0.000000
siesta: Eharris =     -5727.532452
siesta: Etot    =     -5732.703085
siesta: FreeEng =     -5732.707492

        iscf     Eharris(eV)        E_KS(eV)     FreeEng(eV)     dDmax    Ef(eV) dHmax(eV)
   scf:    1    -5727.532452    -5732.703085    -5732.707492  0.248106 -1.796460  1.826415
timer: Routine,Calls,Time,% = IterSCF        1       0.857  46.40
   scf:    2    -5732.917255    -5732.810841    -5732.815057  0.005367 -1.873497  1.692517
   scf:    3    -5733.880784    -5733.442664    -5733.446271  0.061630 -2.788703  0.024400
   scf:    4    -5733.438686    -5733.440990    -5733.444597  0.003440 -2.842640  0.080957
   scf:    5    -5733.443922    -5733.442616    -5733.446224  0.002171 -2.813347  0.016659
   scf:    6    -5733.442656    -5733.442636    -5733.446245  0.000098 -2.812491  0.014705
   scf:    7    -5733.442709    -5733.442675    -5733.446283  0.000233 -2.809136  0.007599
   scf:    8    -5733.442699    -5733.442689    -5733.446298  0.000241 -2.805608  0.000133
   scf:    9    -5733.442689    -5733.442689    -5733.446298  0.000005 -2.805558  0.000002

SCF Convergence by DM+H criterion
max |DM_out - DM_in|         :     0.0000050352
max |H_out - H_in|      (eV) :     0.0000016158
SCF cycle converged after 9 iterations

Using DM_out to compute the final energy and forces
No. of atoms with KB's overlaping orbs in proc 0. Max # of overlaps:      43     267

siesta: E_KS(eV) =            -5733.4427

siesta: E_KS - E_eggbox =     -5733.4427

siesta: Atomic forces (eV/Ang):
----------------------------------------
   Tot   -0.000000    0.000000    0.000000
----------------------------------------
   Max    0.000000
   Res    0.000000    sqrt( Sum f_i^2 / 3N )
----------------------------------------
   Max    0.000000    constrained

Stress tensor Voigt[x,y,z,yz,xz,xy] (kbar):     -218.55     -218.55     -201.19       -0.00       -0.00        0.00
(Free)E + p*V (eV/cell)    -5724.4391
Target enthalpy (eV/cell)    -5733.4463

mulliken: Atomic and Orbital Populations:

Species: Au                  
Atom  Qatom  Qorb
               6s      5dxy    5dyz    5dz2    5dxz    5dx2-y2 6Ppy    6Ppz    
               6Ppx    
   1 11.000   0.978   1.933   1.889   1.940   1.889   1.894   0.158   0.161
              0.158
   2 11.000   0.978   1.933   1.889   1.940   1.889   1.894   0.158   0.161
              0.158
   3 11.000   0.978   1.933   1.889   1.940   1.889   1.894   0.158   0.161
              0.158
   4 11.000   0.978   1.933   1.889   1.940   1.889   1.894   0.158   0.161
              0.158

mulliken: Qtot =       44.000

coxmol: Writing XMOL coordinates into file ts_au_100_elec_1x1.xyz                                                                                                                                                                                                              

siesta: Eigenvalues (eV):
  ik is       eps
   1  1   -9.8930   -9.3642   -9.3597   -9.1010   -8.8007   -8.8007   -8.3120   -8.3119   -8.1891   -8.1891
          -7.0064   -6.4769   -6.4769   -5.9151   -5.8724   -5.6896   -5.6853   -5.6588   -5.6588   -5.3430
   -4.6417   -1.6396   -1.6395    1.6814    3.7094    6.3439    6.3748    6.3748    6.8781    6.8782
    8.5070   12.2906   12.2939   14.6255   15.7729   15.7730
   2  1  -10.1442   -9.6608   -9.6607   -8.8619   -8.7714   -8.3662   -8.2024   -8.0122   -8.0121   -7.4678
          -7.2603   -7.2603   -7.2321   -7.2320   -6.5128   -6.3011   -6.2677   -5.7523   -5.7522   -5.2999
   -4.9728   -3.1825   -3.1824    0.6989    4.4065    4.4066    4.6775    5.7995   10.8554   13.5742
   13.5742   13.9321   14.1649   19.2023   19.2025   20.9216
   3  1  -10.5019  -10.1918  -10.1917   -9.1945   -8.3965   -8.3178   -7.8033   -7.8030   -7.5379   -7.5368
          -7.5367   -7.4474   -7.0017   -6.7867   -6.6465   -6.6464   -6.3280   -5.4429   -5.2331   -5.0884
   -5.0883   -4.4787   -4.4784   -0.0559    3.7169    3.7170    4.1440    6.0689   14.3985   14.5064
   14.5489   17.9927   17.9928   19.6533   19.6535   22.6775
   4  1  -10.1442   -9.6608   -9.6607   -8.8619   -8.7714   -8.3662   -8.2024   -8.0122   -8.0121   -7.4678
          -7.2603   -7.2603   -7.2321   -7.2320   -6.5128   -6.3011   -6.2677   -5.7523   -5.7522   -5.2999
   -4.9728   -3.1825   -3.1824    0.6989    4.4065    4.4066    4.6775    5.7995   10.8554   13.5742
   13.5742   13.9321   14.1649   19.2023   19.2025   20.9216
   5  1   -9.8930   -9.3642   -9.3597   -9.1010   -8.8007   -8.8007   -8.3120   -8.3119   -8.1891   -8.1891
          -7.0064   -6.4769   -6.4769   -5.9151   -5.8724   -5.6896   -5.6853   -5.6588   -5.6588   -5.3430
   -4.6417   -1.6396   -1.6395    1.6814    3.7094    6.3439    6.3748    6.3748    6.8781    6.8782
    8.5070   12.2906   12.2939   14.6255   15.7729   15.7730
   6  1   -9.7827   -9.7826   -9.5254   -9.5254   -8.8136   -8.8135   -8.7119   -8.7119   -7.8139   -7.8139
          -6.4622   -6.4622   -6.0954   -6.0954   -5.2503   -5.2500   -5.0675   -5.0674   -4.9574   -4.9574
   -2.3502   -2.3501    0.9731    0.9731    1.6239    1.6239    7.2625    7.2626    9.1075    9.1079
    9.5960    9.5960   10.1124   10.1124   11.8142   11.8143
   7  1  -10.1442   -9.6608   -9.6607   -8.8619   -8.7714   -8.3662   -8.2024   -8.0122   -8.0121   -7.4678
          -7.2603   -7.2603   -7.2321   -7.2320   -6.5128   -6.3011   -6.2677   -5.7523   -5.7522   -5.2999
   -4.9728   -3.1825   -3.1824    0.6989    4.4065    4.4066    4.6775    5.7995   10.8554   13.5742
   13.5742   13.9321   14.1649   19.2023   19.2025   20.9216
   8  1  -11.4079   -9.6134   -9.6133   -9.3638   -9.0966   -8.5236   -8.5236   -8.3316   -7.8213   -7.8210
          -7.1782   -7.1731   -7.0102   -6.8026   -6.5794   -6.5793   -6.4750   -6.4750   -5.9358   -5.9145
   -4.6416   -4.3123   -4.3121    1.6792    3.7091    6.3456    8.5059   11.0778   11.0778   11.4150
   11.4150   19.2137   19.2155   20.6420   20.6422   23.2676
   9  1  -11.9303  -10.0837  -10.0836   -9.7596   -9.3940   -8.5100   -8.5100   -7.9629   -7.6062   -7.6060
          -7.5481   -7.5028   -6.9384   -6.9383   -6.4240   -6.1381   -6.0314   -5.5312   -5.5311   -5.4882
   -5.3835   -5.3834   -4.8575    0.4574    3.5116    6.6756   10.3729   10.3730   10.7106   16.2687
   16.2688   20.6649   20.6651   20.9675   20.9683   23.6774
  10  1  -11.4079   -9.6134   -9.6133   -9.3638   -9.0966   -8.5236   -8.5236   -8.3316   -7.8213   -7.8210
          -7.1782   -7.1731   -7.0102   -6.8026   -6.5794   -6.5793   -6.4750   -6.4750   -5.9358   -5.9145
   -4.6416   -4.3123   -4.3121    1.6792    3.7091    6.3456    8.5059   11.0778   11.0778   11.4150
   11.4150   19.2137   19.2155   20.6420   20.6422   23.2676
  11  1  -10.1442   -9.6608   -9.6607   -8.8619   -8.7714   -8.3662   -8.2024   -8.0122   -8.0121   -7.4678
          -7.2603   -7.2603   -7.2321   -7.2320   -6.5128   -6.3011   -6.2677   -5.7523   -5.7522   -5.2999
   -4.9728   -3.1825   -3.1824    0.6989    4.4065    4.4066    4.6775    5.7995   10.8554   13.5742
   13.5742   13.9321   14.1649   19.2023   19.2025   20.9216
  12  1   -9.8559   -9.8559   -9.0245   -9.0245   -8.8071   -8.8070   -8.0968   -8.0968   -8.0351   -8.0350
          -7.3770   -7.3768   -6.5669   -6.5668   -6.0368   -6.0366   -5.7062   -5.7062   -5.0558   -5.0556
   -2.9604   -2.9604   -1.5202   -1.5201    0.3659    0.3660    8.4807    8.4808    8.8279    8.8282
   15.8137   15.8137   16.1686   16.1686   16.9837   16.9838
  13  1  -10.5019  -10.1918  -10.1917   -9.1945   -8.3965   -8.3178   -7.8033   -7.8030   -7.5379   -7.5368
          -7.5367   -7.4474   -7.0017   -6.7867   -6.6465   -6.6464   -6.3280   -5.4429   -5.2331   -5.0884
   -5.0883   -4.4787   -4.4784   -0.0559    3.7169    3.7170    4.1440    6.0689   14.3985   14.5064
   14.5489   17.9927   17.9928   19.6533   19.6535   22.6775
  14  1  -11.9303  -10.0837  -10.0836   -9.7596   -9.3940   -8.5100   -8.5100   -7.9629   -7.6062   -7.6060
          -7.5481   -7.5028   -6.9384   -6.9383   -6.4240   -6.1381   -6.0314   -5.5312   -5.5311   -5.4882
   -5.3835   -5.3834   -4.8575    0.4574    3.5116    6.6756   10.3729   10.3730   10.7106   16.2687
   16.2688   20.6649   20.6651   20.9675   20.9683   23.6774
  15  1  -12.4724  -10.3593  -10.3593  -10.0841   -9.8080   -8.8627   -8.8627   -7.7442   -7.7442   -7.7388
          -6.9741   -6.9740   -6.5067   -6.5067   -6.5067   -6.5067   -6.2096   -6.2083   -5.6463   -5.6462
   -5.0192   -4.6427   -4.6427   -1.6477    4.2825    9.2493    9.2493   15.5245   15.5245   15.5246
   15.5246   20.6766   20.6767   23.6929   23.6937   23.6937
  16  1  -10.3515  -10.3515   -9.1199   -9.1199   -8.2843   -8.2843   -7.9010   -7.9010   -7.7842   -7.7841
          -7.7835   -7.7832   -6.8260   -6.8260   -6.2325   -6.2325   -4.9775   -4.9773   -4.9766   -4.9763
   -3.7530   -3.7529   -3.1541   -3.1541    0.3456    0.3457    8.5794    8.5795    8.6902    8.6905
   19.0164   19.0165   19.0173   19.0175   19.2605   19.2605
  17  1   -9.8559   -9.8559   -9.0245   -9.0245   -8.8071   -8.8070   -8.0968   -8.0968   -8.0351   -8.0350
          -7.3770   -7.3768   -6.5669   -6.5668   -6.0368   -6.0366   -5.7062   -5.7062   -5.0558   -5.0556
   -2.9604   -2.9604   -1.5202   -1.5201    0.3659    0.3660    8.4807    8.4808    8.8279    8.8282
   15.8137   15.8137   16.1686   16.1686   16.9837   16.9838
  18  1   -9.7827   -9.7826   -9.5254   -9.5254   -8.8136   -8.8135   -8.7119   -8.7119   -7.8139   -7.8139
          -6.4622   -6.4622   -6.0954   -6.0954   -5.2503   -5.2500   -5.0675   -5.0674   -4.9574   -4.9574
   -2.3502   -2.3501    0.9731    0.9731    1.6239    1.6239    7.2625    7.2626    9.1075    9.1079
    9.5960    9.5960   10.1124   10.1124   11.8142   11.8143
  19  1   -9.7827   -9.7826   -9.5254   -9.5254   -8.8136   -8.8135   -8.7119   -8.7119   -7.8139   -7.8139
          -6.4622   -6.4622   -6.0954   -6.0954   -5.2503   -5.2500   -5.0675   -5.0674   -4.9574   -4.9574
   -2.3502   -2.3501    0.9731    0.9731    1.6239    1.6239    7.2625    7.2626    9.1075    9.1079
    9.5960    9.5960   10.1124   10.1124   11.8142   11.8143
  20  1   -9.8559   -9.8559   -9.0245   -9.0245   -8.8071   -8.8070   -8.0968   -8.0968   -8.0351   -8.0350
          -7.3770   -7.3768   -6.5669   -6.5668   -6.0368   -6.0366   -5.7062   -5.7062   -5.0558   -5.0556
   -2.9604   -2.9604   -1.5202   -1.5201    0.3659    0.3660    8.4807    8.4808    8.8279    8.8282
   15.8137   15.8137   16.1686   16.1686   16.9837   16.9838
  21  1  -10.3515  -10.3515   -9.1199   -9.1199   -8.2843   -8.2843   -7.9010   -7.9010   -7.7842   -7.7841
          -7.7835   -7.7832   -6.8260   -6.8260   -6.2325   -6.2325   -4.9775   -4.9773   -4.9766   -4.9763
   -3.7530   -3.7529   -3.1541   -3.1541    0.3456    0.3457    8.5794    8.5795    8.6902    8.6905
   19.0164   19.0165   19.0173   19.0175   19.2605   19.2605
  22  1   -9.8559   -9.8559   -9.0245   -9.0245   -8.8071   -8.8070   -8.0968   -8.0968   -8.0351   -8.0350
          -7.3770   -7.3768   -6.5669   -6.5668   -6.0368   -6.0366   -5.7062   -5.7062   -5.0558   -5.0556
   -2.9604   -2.9604   -1.5202   -1.5201    0.3659    0.3660    8.4807    8.4808    8.8279    8.8282
   15.8137   15.8137   16.1686   16.1686   16.9837   16.9838
  23  1   -9.7827   -9.7826   -9.5254   -9.5254   -8.8136   -8.8135   -8.7119   -8.7119   -7.8139   -7.8139
          -6.4622   -6.4622   -6.0954   -6.0954   -5.2503   -5.2500   -5.0675   -5.0674   -4.9574   -4.9574
   -2.3502   -2.3501    0.9731    0.9731    1.6239    1.6239    7.2625    7.2626    9.1075    9.1079
    9.5960    9.5960   10.1124   10.1124   11.8142   11.8143
  24  1  -10.0849  -10.0848   -9.8128   -9.8128   -9.0141   -9.0140   -8.2190   -8.2190   -8.2190   -8.2190
          -6.3330   -6.3330   -5.0209   -5.0205   -4.6429   -4.6429   -4.6391   -4.6391   -4.6375   -4.6375
   -1.6456   -1.6456    3.5339    3.5340    4.0196    4.0196    4.0197    4.0197    4.2826    4.2827
    8.3321    8.3323    9.2484    9.2487    9.2524    9.2524
  25  1   -9.8710   -9.3684   -9.3468   -9.0743   -8.9427   -8.6763   -8.4102   -8.3891   -8.2490   -7.9847
          -7.0161   -6.5041   -6.3829   -6.1755   -5.9235   -5.6861   -5.6830   -5.6195   -5.4964   -5.2371
   -4.6757   -2.0429   -1.2140    1.7512    3.5220    5.6735    6.2039    6.5586    7.0966    7.2707
    8.9085   12.0935   12.1813   14.7357   15.5809   15.8600
  26  1  -10.1387   -9.7500   -9.5612   -8.8480   -8.7476   -8.4592   -8.1146   -8.0914   -7.9532   -7.4812
          -7.3773   -7.2848   -7.2232   -7.1380   -6.6274   -6.3154   -6.1204   -5.8124   -5.6376   -5.3110
   -4.9830   -3.5847   -2.7307    0.7415    3.7741    3.8793    5.1036    6.6792   10.9168   12.9705
   12.9840   14.1921   14.9873   18.5068   19.7005   20.8893
  27  1  -10.5052  -10.2941  -10.0724   -9.2046   -8.4011   -8.2763   -7.8961   -7.7231   -7.5838   -7.5218
          -7.4651   -7.4484   -7.0886   -6.7712   -6.6845   -6.5515   -6.3743   -5.4043   -5.2453   -5.2089
   -5.0121   -4.9998   -3.8549   -0.0117    3.0524    3.4662    4.4482    6.8603   13.1438   14.5415
   15.7614   17.3642   18.6512   18.9134   20.1051   22.6137
  28  1  -10.1387   -9.7500   -9.5612   -8.8480   -8.7476   -8.4592   -8.1146   -8.0914   -7.9532   -7.4812
          -7.3773   -7.2848   -7.2232   -7.1380   -6.6274   -6.3154   -6.1204   -5.8124   -5.6376   -5.3110
   -4.9830   -3.5847   -2.7307    0.7415    3.7741    3.8793    5.1036    6.6792   10.9168   12.9705
   12.9840   14.1921   14.9873   18.5068   19.7005   20.8893
  29  1   -9.8710   -9.3684   -9.3468   -9.0743   -8.9427   -8.6763   -8.4102   -8.3891   -8.2490   -7.9847
          -7.0161   -6.5041   -6.3829   -6.1755   -5.9235   -5.6861   -5.6830   -5.6195   -5.4964   -5.2371
   -4.6757   -2.0429   -1.2140    1.7512    3.5220    5.6735    6.2039    6.5586    7.0966    7.2707
    8.9085   12.0935   12.1813   14.7357   15.5809   15.8600
  30  1   -9.7758   -9.7756   -9.5004   -9.5004   -8.9426   -8.9426   -8.6276   -8.6276   -7.7914   -7.7913
          -6.4271   -6.4271   -6.1184   -6.1184   -5.3663   -5.3660   -5.0587   -5.0586   -4.8996   -4.8995
   -2.2738   -2.2738    0.7315    0.7315    1.8879    1.8879    6.9968    6.9969    9.1160    9.1163
    9.5772    9.5772   10.3291   10.3292   11.8357   11.8358
  31  1  -10.1387   -9.7500   -9.5612   -8.8480   -8.7476   -8.4592   -8.1146   -8.0914   -7.9532   -7.4812
          -7.3773   -7.2848   -7.2232   -7.1380   -6.6274   -6.3154   -6.1204   -5.8124   -5.6376   -5.3110
   -4.9830   -3.5847   -2.7307    0.7415    3.7741    3.8793    5.1036    6.6792   10.9168   12.9705
   12.9840   14.1921   14.9873   18.5068   19.7005   20.8893
  32  1  -11.3856   -9.8850   -9.3595   -9.3508   -9.0893   -8.6074   -8.4458   -8.3274   -7.9612   -7.6743
          -7.2064   -7.1739   -7.0564   -6.7687   -6.7100   -6.6674   -6.4167   -6.2599   -5.9330   -5.8978
   -4.6729   -4.6173   -3.9722    1.2108    4.2204    6.4086    8.6472   10.2085   10.5723   12.0186
   12.3085   19.0511   19.0655   19.4865   21.5123   23.2791
  33  1  -11.9073  -10.3473   -9.8617   -9.7519   -9.3830   -8.6320   -8.3920   -7.9576   -7.6159   -7.5444
          -7.5419   -7.5053   -7.0717   -6.7893   -6.4091   -6.1510   -6.0719   -5.8677   -5.5271   -5.5236
   -5.2476   -5.1271   -4.8489    0.1284    3.8439    6.8861    9.4516   10.7729   11.3650   15.3130
   17.2682   19.3933   20.1779   21.5995   21.6044   23.5682
  34  1  -11.3856   -9.8850   -9.3595   -9.3508   -9.0893   -8.6074   -8.4458   -8.3274   -7.9612   -7.6743
          -7.2064   -7.1739   -7.0564   -6.7687   -6.7100   -6.6674   -6.4167   -6.2599   -5.9330   -5.8978
   -4.6729   -4.6173   -3.9722    1.2108    4.2204    6.4086    8.6472   10.2085   10.5723   12.0186
   12.3085   19.0511   19.0655   19.4865   21.5123   23.2791
  35  1  -10.1387   -9.7500   -9.5612   -8.8480   -8.7476   -8.4592   -8.1146   -8.0914   -7.9532   -7.4812
          -7.3773   -7.2848   -7.2232   -7.1380   -6.6274   -6.3154   -6.1204   -5.8124   -5.6376   -5.3110
   -4.9830   -3.5847   -2.7307    0.7415    3.7741    3.8793    5.1036    6.6792   10.9168   12.9705
   12.9840   14.1921   14.9873   18.5068   19.7005   20.8893
  36  1   -9.8465   -9.8465   -9.1187   -9.1186   -8.7050   -8.7050   -8.0997   -8.0996   -8.0179   -8.0178
          -7.3626   -7.3624   -6.6235   -6.6234   -6.1691   -6.1690   -5.5792   -5.5792   -5.0341   -5.0339
   -2.9438   -2.9438   -1.6069   -1.6069    0.5205    0.5207    7.3628    7.3630    9.9889    9.9892
   15.8213   15.8213   16.1585   16.1586   16.9105   16.9106
  37  1  -10.5052  -10.2941  -10.0724   -9.2046   -8.4011   -8.2763   -7.8961   -7.7231   -7.5838   -7.5218
          -7.4651   -7.4484   -7.0886   -6.7712   -6.6845   -6.5515   -6.3743   -5.4043   -5.2453   -5.2089
   -5.0121   -4.9998   -3.8549   -0.0117    3.0524    3.4662    4.4482    6.8603   13.1438   14.5415
   15.7614   17.3642   18.6512   18.9134   20.1051   22.6137
  38  1  -11.9073  -10.3473   -9.8617   -9.7519   -9.3830   -8.6320   -8.3920   -7.9576   -7.6159   -7.5444
          -7.5419   -7.5053   -7.0717   -6.7893   -6.4091   -6.1510   -6.0719   -5.8677   -5.5271   -5.5236
   -5.2476   -5.1271   -4.8489    0.1284    3.8439    6.8861    9.4516   10.7729   11.3650   15.3130
   17.2682   19.3933   20.1779   21.5995   21.6044   23.5682
  39  1  -12.4478  -10.6589  -10.1203  -10.0759   -9.7973   -9.0211   -8.7000   -7.7539   -7.7313   -7.7313
          -7.0039   -6.8203   -6.7300   -6.7300   -6.2694   -6.2694   -6.2266   -6.2017   -5.7381   -5.5527
   -5.0274   -4.6725   -4.6725   -1.8947    4.6791    9.3241    9.3241   14.4768   14.4768   16.6165
   16.6165   19.1833   21.8187   23.5704   23.5704   23.6950
  40  1  -11.9073  -10.3473   -9.8617   -9.7519   -9.3830   -8.6320   -8.3920   -7.9576   -7.6159   -7.5444
          -7.5419   -7.5053   -7.0717   -6.7893   -6.4091   -6.1510   -6.0719   -5.8677   -5.5271   -5.5236
   -5.2476   -5.1271   -4.8489    0.1284    3.8439    6.8861    9.4516   10.7729   11.3650   15.3130
   17.2682   19.3933   20.1779   21.5995   21.6044   23.5682
  41  1  -10.5052  -10.2941  -10.0724   -9.2046   -8.4011   -8.2763   -7.8961   -7.7231   -7.5838   -7.5218
          -7.4651   -7.4484   -7.0886   -6.7712   -6.6845   -6.5515   -6.3743   -5.4043   -5.2453   -5.2089
   -5.0121   -4.9998   -3.8549   -0.0117    3.0524    3.4662    4.4482    6.8603   13.1438   14.5415
   15.7614   17.3642   18.6512   18.9134   20.1051   22.6137
  42  1  -10.3354  -10.3354   -9.2061   -9.2061   -8.2109   -8.2109   -7.8539   -7.8538   -7.7905   -7.7902
          -7.7709   -7.7708   -6.8899   -6.8899   -6.1615   -6.1615   -5.1047   -5.1045   -4.9982   -4.9981
   -3.6804   -3.6803   -3.1558   -3.1558    0.4507    0.4508    7.2509    7.2510   10.0920   10.0923
   18.8908   18.8910   19.0227   19.0227   19.2548   19.2548
  43  1  -10.1387   -9.7500   -9.5612   -8.8480   -8.7476   -8.4592   -8.1146   -8.0914   -7.9532   -7.4812
          -7.3773   -7.2848   -7.2232   -7.1380   -6.6274   -6.3154   -6.1204   -5.8124   -5.6376   -5.3110
   -4.9830   -3.5847   -2.7307    0.7415    3.7741    3.8793    5.1036    6.6792   10.9168   12.9705
   12.9840   14.1921   14.9873   18.5068   19.7005   20.8893
  44  1  -11.3856   -9.8850   -9.3595   -9.3508   -9.0893   -8.6074   -8.4458   -8.3274   -7.9612   -7.6743
          -7.2064   -7.1739   -7.0564   -6.7687   -6.7100   -6.6674   -6.4167   -6.2599   -5.9330   -5.8978
   -4.6729   -4.6173   -3.9722    1.2108    4.2204    6.4086    8.6472   10.2085   10.5723   12.0186
   12.3085   19.0511   19.0655   19.4865   21.5123   23.2791
  45  1  -11.9073  -10.3473   -9.8617   -9.7519   -9.3830   -8.6320   -8.3920   -7.9576   -7.6159   -7.5444
          -7.5419   -7.5053   -7.0717   -6.7893   -6.4091   -6.1510   -6.0719   -5.8677   -5.5271   -5.5236
   -5.2476   -5.1271   -4.8489    0.1284    3.8439    6.8861    9.4516   10.7729   11.3650   15.3130
   17.2682   19.3933   20.1779   21.5995   21.6044   23.5682
  46  1  -11.3856   -9.8850   -9.3595   -9.3508   -9.0893   -8.6074   -8.4458   -8.3274   -7.9612   -7.6743
          -7.2064   -7.1739   -7.0564   -6.7687   -6.7100   -6.6674   -6.4167   -6.2599   -5.9330   -5.8978
   -4.6729   -4.6173   -3.9722    1.2108    4.2204    6.4086    8.6472   10.2085   10.5723   12.0186
   12.3085   19.0511   19.0655   19.4865   21.5123   23.2791
  47  1  -10.1387   -9.7500   -9.5612   -8.8480   -8.7476   -8.4592   -8.1146   -8.0914   -7.9532   -7.4812
          -7.3773   -7.2848   -7.2232   -7.1380   -6.6274   -6.3154   -6.1204   -5.8124   -5.6376   -5.3110
   -4.9830   -3.5847   -2.7307    0.7415    3.7741    3.8793    5.1036    6.6792   10.9168   12.9705
   12.9840   14.1921   14.9873   18.5068   19.7005   20.8893
  48  1   -9.8465   -9.8465   -9.1187   -9.1186   -8.7050   -8.7050   -8.0997   -8.0996   -8.0179   -8.0178
          -7.3626   -7.3624   -6.6235   -6.6234   -6.1691   -6.1690   -5.5792   -5.5792   -5.0341   -5.0339
   -2.9438   -2.9438   -1.6069   -1.6069    0.5205    0.5207    7.3628    7.3630    9.9889    9.9892
   15.8213   15.8213   16.1585   16.1586   16.9105   16.9106
  49  1   -9.8710   -9.3684   -9.3468   -9.0743   -8.9427   -8.6763   -8.4102   -8.3891   -8.2490   -7.9847
          -7.0161   -6.5041   -6.3829   -6.1755   -5.9235   -5.6861   -5.6830   -5.6195   -5.4964   -5.2371
   -4.6757   -2.0429   -1.2140    1.7512    3.5220    5.6735    6.2039    6.5586    7.0966    7.2707
    8.9085   12.0935   12.1813   14.7357   15.5809   15.8600
  50  1  -10.1387   -9.7500   -9.5612   -8.8480   -8.7476   -8.4592   -8.1146   -8.0914   -7.9532   -7.4812
          -7.3773   -7.2848   -7.2232   -7.1380   -6.6274   -6.3154   -6.1204   -5.8124   -5.6376   -5.3110
   -4.9830   -3.5847   -2.7307    0.7415    3.7741    3.8793    5.1036    6.6792   10.9168   12.9705
   12.9840   14.1921   14.9873   18.5068   19.7005   20.8893
  51  1  -10.5052  -10.2941  -10.0724   -9.2046   -8.4011   -8.2763   -7.8961   -7.7231   -7.5838   -7.5218
          -7.4651   -7.4484   -7.0886   -6.7712   -6.6845   -6.5515   -6.3743   -5.4043   -5.2453   -5.2089
   -5.0121   -4.9998   -3.8549   -0.0117    3.0524    3.4662    4.4482    6.8603   13.1438   14.5415
   15.7614   17.3642   18.6512   18.9134   20.1051   22.6137
  52  1  -10.1387   -9.7500   -9.5612   -8.8480   -8.7476   -8.4592   -8.1146   -8.0914   -7.9532   -7.4812
          -7.3773   -7.2848   -7.2232   -7.1380   -6.6274   -6.3154   -6.1204   -5.8124   -5.6376   -5.3110
   -4.9830   -3.5847   -2.7307    0.7415    3.7741    3.8793    5.1036    6.6792   10.9168   12.9705
   12.9840   14.1921   14.9873   18.5068   19.7005   20.8893
  53  1   -9.8710   -9.3684   -9.3468   -9.0743   -8.9427   -8.6763   -8.4102   -8.3891   -8.2490   -7.9847
          -7.0161   -6.5041   -6.3829   -6.1755   -5.9235   -5.6861   -5.6830   -5.6195   -5.4964   -5.2371
   -4.6757   -2.0429   -1.2140    1.7512    3.5220    5.6735    6.2039    6.5586    7.0966    7.2707
    8.9085   12.0935   12.1813   14.7357   15.5809   15.8600
  54  1   -9.7758   -9.7756   -9.5004   -9.5004   -8.9426   -8.9426   -8.6276   -8.6276   -7.7914   -7.7913
          -6.4271   -6.4271   -6.1184   -6.1184   -5.3663   -5.3660   -5.0587   -5.0586   -4.8996   -4.8995
   -2.2738   -2.2738    0.7315    0.7315    1.8879    1.8879    6.9968    6.9969    9.1160    9.1163
    9.5772    9.5772   10.3291   10.3292   11.8357   11.8358
  55  1   -9.7758   -9.7756   -9.5004   -9.5004   -8.9426   -8.9426   -8.6276   -8.6276   -7.7914   -7.7913
          -6.4271   -6.4271   -6.1184   -6.1184   -5.3663   -5.3660   -5.0587   -5.0586   -4.8996   -4.8995
   -2.2738   -2.2738    0.7315    0.7315    1.8879    1.8879    6.9968    6.9969    9.1160    9.1163
    9.5772    9.5772   10.3291   10.3292   11.8357   11.8358
  56  1   -9.8465   -9.8465   -9.1187   -9.1186   -8.7050   -8.7050   -8.0997   -8.0996   -8.0179   -8.0178
          -7.3626   -7.3624   -6.6235   -6.6234   -6.1691   -6.1690   -5.5792   -5.5792   -5.0341   -5.0339
   -2.9438   -2.9438   -1.6069   -1.6069    0.5205    0.5207    7.3628    7.3630    9.9889    9.9892
   15.8213   15.8213   16.1585   16.1586   16.9105   16.9106
  57  1  -10.3354  -10.3354   -9.2061   -9.2061   -8.2109   -8.2109   -7.8539   -7.8538   -7.7905   -7.7902
          -7.7709   -7.7708   -6.8899   -6.8899   -6.1615   -6.1615   -5.1047   -5.1045   -4.9982   -4.9981
   -3.6804   -3.6803   -3.1558   -3.1558    0.4507    0.4508    7.2509    7.2510   10.0920   10.0923
   18.8908   18.8910   19.0227   19.0227   19.2548   19.2548
  58  1   -9.8465   -9.8465   -9.1187   -9.1186   -8.7050   -8.7050   -8.0997   -8.0996   -8.0179   -8.0178
          -7.3626   -7.3624   -6.6235   -6.6234   -6.1691   -6.1690   -5.5792   -5.5792   -5.0341   -5.0339
   -2.9438   -2.9438   -1.6069   -1.6069    0.5205    0.5207    7.3628    7.3630    9.9889    9.9892
   15.8213   15.8213   16.1585   16.1586   16.9105   16.9106
  59  1   -9.7758   -9.7756   -9.5004   -9.5004   -8.9426   -8.9426   -8.6276   -8.6276   -7.7914   -7.7913
          -6.4271   -6.4271   -6.1184   -6.1184   -5.3663   -5.3660   -5.0587   -5.0586   -4.8996   -4.8995
   -2.2738   -2.2738    0.7315    0.7315    1.8879    1.8879    6.9968    6.9969    9.1160    9.1163
    9.5772    9.5772   10.3291   10.3292   11.8357   11.8358
  60  1  -10.0657  -10.0655   -9.7967   -9.7967   -9.0531   -9.0531   -8.5196   -8.5196   -7.8886   -7.8886
          -6.2872   -6.2872   -5.0452   -5.0448   -4.7578   -4.7578   -4.6390   -4.6390   -4.6375   -4.6375
   -1.5085   -1.5085    3.3112    3.3112    3.5507    3.5508    4.2630    4.2631    4.7275    4.7275
    8.3478    8.3479    9.1643    9.1643    9.2168    9.2171
  61  1   -9.8055   -9.3734   -9.3082   -9.0666   -9.0023   -8.7492   -8.5784   -8.3337   -8.2684   -7.7835
          -7.0459   -6.5508   -6.4596   -6.2456   -5.9493   -5.6961   -5.6884   -5.5599   -5.4934   -4.8765
   -4.7708   -2.4366   -0.7521    1.9545    3.0234    4.9976    6.0070    6.3073    7.7389    7.8342
    9.8169   11.6006   11.8586   14.9785   15.2439   15.8743
  62  1  -10.1224   -9.8295   -9.4510   -8.8072   -8.6771   -8.6063   -8.1915   -7.9828   -7.9081   -7.5506
          -7.5204   -7.3435   -7.1991   -7.0309   -6.7800   -6.3587   -5.8715   -5.8072   -5.5001   -5.3430
   -5.0113   -3.9533   -2.2133    0.8604    2.7976    3.2023    5.8693    7.9814   11.1245   11.8693
   12.3955   14.8031   15.7169   17.5846   20.0435   20.8046
  63  1  -10.5131  -10.3775   -9.9396   -9.2379   -8.4070   -8.1552   -7.9986   -7.6575   -7.6056   -7.4772
          -7.4514   -7.3700   -7.2196   -6.9003   -6.5466   -6.5080   -6.4912   -5.4022   -5.3568   -5.3104
   -5.2814   -4.9465   -3.1607    0.1192    2.3711    2.4495    5.2529    8.2891   11.8198   14.6473
   16.7805   16.9535   17.8741   19.3216   20.2975   22.4245
  64  1  -10.1224   -9.8295   -9.4510   -8.8072   -8.6771   -8.6063   -8.1915   -7.9828   -7.9081   -7.5506
          -7.5204   -7.3435   -7.1991   -7.0309   -6.7800   -6.3587   -5.8715   -5.8072   -5.5001   -5.3430
   -5.0113   -3.9533   -2.2133    0.8604    2.7976    3.2023    5.8693    7.9814   11.1245   11.8693
   12.3955   14.8031   15.7169   17.5846   20.0435   20.8046
  65  1   -9.8055   -9.3734   -9.3082   -9.0666   -9.0023   -8.7492   -8.5784   -8.3337   -8.2684   -7.7835
          -7.0459   -6.5508   -6.4596   -6.2456   -5.9493   -5.6961   -5.6884   -5.5599   -5.4934   -4.8765
   -4.7708   -2.4366   -0.7521    1.9545    3.0234    4.9976    6.0070    6.3073    7.7389    7.8342
    9.8169   11.6006   11.8586   14.9785   15.2439   15.8743
  66  1   -9.7522   -9.7520   -9.4291   -9.4291   -9.1154   -9.1154   -8.6085   -8.6084   -7.6893   -7.6893
          -6.3372   -6.3372   -6.1996   -6.1996   -5.5745   -5.5743   -5.0328   -5.0328   -4.8377   -4.8375
   -2.0611   -2.0610    0.3248    0.3248    2.3633    2.3633    6.3828    6.3830    9.1406    9.1407
    9.5261    9.5262   10.7913   10.7914   11.8875   11.8876
  67  1  -10.1224   -9.8295   -9.4510   -8.8072   -8.6771   -8.6063   -8.1915   -7.9828   -7.9081   -7.5506
          -7.5204   -7.3435   -7.1991   -7.0309   -6.7800   -6.3587   -5.8715   -5.8072   -5.5001   -5.3430
   -5.0113   -3.9533   -2.2133    0.8604    2.7976    3.2023    5.8693    7.9814   11.1245   11.8693
   12.3955   14.8031   15.7169   17.5846   20.0435   20.8046
  68  1  -11.3193  -10.1572   -9.3126   -9.1528   -9.0677   -8.6928   -8.3790   -8.3162   -8.0579   -7.5491
          -7.2650   -7.1816   -7.1746   -6.8316   -6.7876   -6.7000   -6.2441   -6.0282   -5.9166   -5.8610
   -4.8966   -4.7640   -3.5836    0.3682    5.1512    6.5951    9.1093    9.4174    9.7849   13.0162
   13.2469   18.0523   18.5933   18.6337   22.1339   23.2947
  69  1  -11.8386  -10.6259   -9.7301   -9.7066   -9.3500   -8.7581   -8.2785   -7.9457   -7.5403   -7.5326
          -7.5093   -7.4626   -7.1880   -6.6268   -6.3650   -6.1897   -6.1883   -6.1288   -5.6740   -5.6196
   -5.1243   -4.8323   -4.6583   -0.5779    4.5154    7.5567    8.6006   10.9587   12.4248   14.4178
   17.8089   18.2904   19.2468   22.0884   22.2200   23.2466
  70  1  -11.3193  -10.1572   -9.3126   -9.1528   -9.0677   -8.6928   -8.3790   -8.3162   -8.0579   -7.5491
          -7.2650   -7.1816   -7.1746   -6.8316   -6.7876   -6.7000   -6.2441   -6.0282   -5.9166   -5.8610
   -4.8966   -4.7640   -3.5836    0.3682    5.1512    6.5951    9.1093    9.4174    9.7849   13.0162
   13.2469   18.0523   18.5933   18.6337   22.1339   23.2947
  71  1  -10.1224   -9.8295   -9.4510   -8.8072   -8.6771   -8.6063   -8.1915   -7.9828   -7.9081   -7.5506
          -7.5204   -7.3435   -7.1991   -7.0309   -6.7800   -6.3587   -5.8715   -5.8072   -5.5001   -5.3430
   -5.0113   -3.9533   -2.2133    0.8604    2.7976    3.2023    5.8693    7.9814   11.1245   11.8693
   12.3955   14.8031   15.7169   17.5846   20.0435   20.8046
  72  1   -9.8183   -9.8183   -9.2625   -9.2624   -8.5435   -8.5435   -8.1095   -8.1094   -7.9613   -7.9613
          -7.3184   -7.3182   -6.7757   -6.7756   -6.3877   -6.3876   -5.3787   -5.3786   -4.9853   -4.9851
   -2.8927   -2.8927   -1.8112   -1.8112    0.9287    0.9288    6.1561    6.1563   11.3131   11.3133
   15.8436   15.8436   16.1298   16.1298   16.6807   16.6808
  73  1  -10.5131  -10.3775   -9.9396   -9.2379   -8.4070   -8.1552   -7.9986   -7.6575   -7.6056   -7.4772
          -7.4514   -7.3700   -7.2196   -6.9003   -6.5466   -6.5080   -6.4912   -5.4022   -5.3568   -5.3104
   -5.2814   -4.9465   -3.1607    0.1192    2.3711    2.4495    5.2529    8.2891   11.8198   14.6473
   16.7805   16.9535   17.8741   19.3216   20.2975   22.4245
  74  1  -11.8386  -10.6259   -9.7301   -9.7066   -9.3500   -8.7581   -8.2785   -7.9457   -7.5403   -7.5326
          -7.5093   -7.4626   -7.1880   -6.6268   -6.3650   -6.1897   -6.1883   -6.1288   -5.6740   -5.6196
   -5.1243   -4.8323   -4.6583   -0.5779    4.5154    7.5567    8.6006   10.9587   12.4248   14.4178
   17.8089   18.2904   19.2468   22.0884   22.2200   23.2466
  75  1  -12.3739  -10.9840  -10.0520   -9.9670   -9.7652   -9.1716   -8.5368   -7.7988   -7.6928   -7.6928
          -6.9493   -6.9358   -6.9358   -6.5149   -6.2764   -6.1821   -6.0227   -6.0227   -5.8263   -5.4599
   -5.0516   -4.7596   -4.7596   -2.4998    5.7321    9.5465    9.5465   13.4897   13.4897   17.3745
   17.7326   17.7326   22.6240   23.2081   23.2081   23.6993
  76  1  -11.8386  -10.6259   -9.7301   -9.7066   -9.3500   -8.7581   -8.2785   -7.9457   -7.5403   -7.5326
          -7.5093   -7.4626   -7.1880   -6.6268   -6.3650   -6.1897   -6.1883   -6.1288   -5.6740   -5.6196
   -5.1243   -4.8323   -4.6583   -0.5779    4.5154    7.5567    8.6006   10.9587   12.4248   14.4178
   17.8089   18.2904   19.2468   22.0884   22.2200   23.2466
  77  1  -10.5131  -10.3775   -9.9396   -9.2379   -8.4070   -8.1552   -7.9986   -7.6575   -7.6056   -7.4772
          -7.4514   -7.3700   -7.2196   -6.9003   -6.5466   -6.5080   -6.4912   -5.4022   -5.3568   -5.3104
   -5.2814   -4.9465   -3.1607    0.1192    2.3711    2.4495    5.2529    8.2891   11.8198   14.6473
   16.7805   16.9535   17.8741   19.3216   20.2975   22.4245
  78  1  -10.2871  -10.2871   -9.3908   -9.3908   -8.1003   -8.1002   -7.8108   -7.8106   -7.7311   -7.7310
          -7.6779   -7.6778   -7.0276   -7.0276   -6.0032   -6.0031   -5.4112   -5.4110   -5.0596   -5.0594
   -3.5348   -3.5347   -3.1618   -3.1617    0.7611    0.7612    5.9615    5.9617   11.5899   11.5902
   18.5082   18.5083   19.0408   19.0408   19.2382   19.2382
  79  1  -10.1224   -9.8295   -9.4510   -8.8072   -8.6771   -8.6063   -8.1915   -7.9828   -7.9081   -7.5506
          -7.5204   -7.3435   -7.1991   -7.0309   -6.7800   -6.3587   -5.8715   -5.8072   -5.5001   -5.3430
   -5.0113   -3.9533   -2.2133    0.8604    2.7976    3.2023    5.8693    7.9814   11.1245   11.8693
   12.3955   14.8031   15.7169   17.5846   20.0435   20.8046
  80  1  -11.3193  -10.1572   -9.3126   -9.1528   -9.0677   -8.6928   -8.3790   -8.3162   -8.0579   -7.5491
          -7.2650   -7.1816   -7.1746   -6.8316   -6.7876   -6.7000   -6.2441   -6.0282   -5.9166   -5.8610
   -4.8966   -4.7640   -3.5836    0.3682    5.1512    6.5951    9.1093    9.4174    9.7849   13.0162
   13.2469   18.0523   18.5933   18.6337   22.1339   23.2947
  81  1  -11.8386  -10.6259   -9.7301   -9.7066   -9.3500   -8.7581   -8.2785   -7.9457   -7.5403   -7.5326
          -7.5093   -7.4626   -7.1880   -6.6268   -6.3650   -6.1897   -6.1883   -6.1288   -5.6740   -5.6196
   -5.1243   -4.8323   -4.6583   -0.5779    4.5154    7.5567    8.6006   10.9587   12.4248   14.4178
   17.8089   18.2904   19.2468   22.0884   22.2200   23.2466
  82  1  -11.3193  -10.1572   -9.3126   -9.1528   -9.0677   -8.6928   -8.3790   -8.3162   -8.0579   -7.5491
          -7.2650   -7.1816   -7.1746   -6.8316   -6.7876   -6.7000   -6.2441   -6.0282   -5.9166   -5.8610
   -4.8966   -4.7640   -3.5836    0.3682    5.1512    6.5951    9.1093    9.4174    9.7849   13.0162
   13.2469   18.0523   18.5933   18.6337   22.1339   23.2947
  83  1  -10.1224   -9.8295   -9.4510   -8.8072   -8.6771   -8.6063   -8.1915   -7.9828   -7.9081   -7.5506
          -7.5204   -7.3435   -7.1991   -7.0309   -6.7800   -6.3587   -5.8715   -5.8072   -5.5001   -5.3430
   -5.0113   -3.9533   -2.2133    0.8604    2.7976    3.2023    5.8693    7.9814   11.1245   11.8693
   12.3955   14.8031   15.7169   17.5846   20.0435   20.8046
  84  1   -9.8183   -9.8183   -9.2625   -9.2624   -8.5435   -8.5435   -8.1095   -8.1094   -7.9613   -7.9613
          -7.3184   -7.3182   -6.7757   -6.7756   -6.3877   -6.3876   -5.3787   -5.3786   -4.9853   -4.9851
   -2.8927   -2.8927   -1.8112   -1.8112    0.9287    0.9288    6.1561    6.1563   11.3131   11.3133
   15.8436   15.8436   16.1298   16.1298   16.6807   16.6808
  85  1   -9.8055   -9.3734   -9.3082   -9.0666   -9.0023   -8.7492   -8.5784   -8.3337   -8.2684   -7.7835
          -7.0459   -6.5508   -6.4596   -6.2456   -5.9493   -5.6961   -5.6884   -5.5599   -5.4934   -4.8765
   -4.7708   -2.4366   -0.7521    1.9545    3.0234    4.9976    6.0070    6.3073    7.7389    7.8342
    9.8169   11.6006   11.8586   14.9785   15.2439   15.8743
  86  1  -10.1224   -9.8295   -9.4510   -8.8072   -8.6771   -8.6063   -8.1915   -7.9828   -7.9081   -7.5506
          -7.5204   -7.3435   -7.1991   -7.0309   -6.7800   -6.3587   -5.8715   -5.8072   -5.5001   -5.3430
   -5.0113   -3.9533   -2.2133    0.8604    2.7976    3.2023    5.8693    7.9814   11.1245   11.8693
   12.3955   14.8031   15.7169   17.5846   20.0435   20.8046
  87  1  -10.5131  -10.3775   -9.9396   -9.2379   -8.4070   -8.1552   -7.9986   -7.6575   -7.6056   -7.4772
          -7.4514   -7.3700   -7.2196   -6.9003   -6.5466   -6.5080   -6.4912   -5.4022   -5.3568   -5.3104
   -5.2814   -4.9465   -3.1607    0.1192    2.3711    2.4495    5.2529    8.2891   11.8198   14.6473
   16.7805   16.9535   17.8741   19.3216   20.2975   22.4245
  88  1  -10.1224   -9.8295   -9.4510   -8.8072   -8.6771   -8.6063   -8.1915   -7.9828   -7.9081   -7.5506
          -7.5204   -7.3435   -7.1991   -7.0309   -6.7800   -6.3587   -5.8715   -5.8072   -5.5001   -5.3430
   -5.0113   -3.9533   -2.2133    0.8604    2.7976    3.2023    5.8693    7.9814   11.1245   11.8693
   12.3955   14.8031   15.7169   17.5846   20.0435   20.8046
  89  1   -9.8055   -9.3734   -9.3082   -9.0666   -9.0023   -8.7492   -8.5784   -8.3337   -8.2684   -7.7835
          -7.0459   -6.5508   -6.4596   -6.2456   -5.9493   -5.6961   -5.6884   -5.5599   -5.4934   -4.8765
   -4.7708   -2.4366   -0.7521    1.9545    3.0234    4.9976    6.0070    6.3073    7.7389    7.8342
    9.8169   11.6006   11.8586   14.9785   15.2439   15.8743
  90  1   -9.7522   -9.7520   -9.4291   -9.4291   -9.1154   -9.1154   -8.6085   -8.6084   -7.6893   -7.6893
          -6.3372   -6.3372   -6.1996   -6.1996   -5.5745   -5.5743   -5.0328   -5.0328   -4.8377   -4.8375
   -2.0611   -2.0610    0.3248    0.3248    2.3633    2.3633    6.3828    6.3830    9.1406    9.1407
    9.5261    9.5262   10.7913   10.7914   11.8875   11.8876
  91  1   -9.7522   -9.7520   -9.4291   -9.4291   -9.1154   -9.1154   -8.6085   -8.6084   -7.6893   -7.6893
          -6.3372   -6.3372   -6.1996   -6.1996   -5.5745   -5.5743   -5.0328   -5.0328   -4.8377   -4.8375
   -2.0611   -2.0610    0.3248    0.3248    2.3633    2.3633    6.3828    6.3830    9.1406    9.1407
    9.5261    9.5262   10.7913   10.7914   11.8875   11.8876
  92  1   -9.8183   -9.8183   -9.2625   -9.2624   -8.5435   -8.5435   -8.1095   -8.1094   -7.9613   -7.9613
          -7.3184   -7.3182   -6.7757   -6.7756   -6.3877   -6.3876   -5.3787   -5.3786   -4.9853   -4.9851
   -2.8927   -2.8927   -1.8112   -1.8112    0.9287    0.9288    6.1561    6.1563   11.3131   11.3133
   15.8436   15.8436   16.1298   16.1298   16.6807   16.6808
  93  1  -10.2871  -10.2871   -9.3908   -9.3908   -8.1003   -8.1002   -7.8108   -7.8106   -7.7311   -7.7310
          -7.6779   -7.6778   -7.0276   -7.0276   -6.0032   -6.0031   -5.4112   -5.4110   -5.0596   -5.0594
   -3.5348   -3.5347   -3.1618   -3.1617    0.7611    0.7612    5.9615    5.9617   11.5899   11.5902
   18.5082   18.5083   19.0408   19.0408   19.2382   19.2382
  94  1   -9.8183   -9.8183   -9.2625   -9.2624   -8.5435   -8.5435   -8.1095   -8.1094   -7.9613   -7.9613
          -7.3184   -7.3182   -6.7757   -6.7756   -6.3877   -6.3876   -5.3787   -5.3786   -4.9853   -4.9851
   -2.8927   -2.8927   -1.8112   -1.8112    0.9287    0.9288    6.1561    6.1563   11.3131   11.3133
   15.8436   15.8436   16.1298   16.1298   16.6807   16.6808
  95  1   -9.7522   -9.7520   -9.4291   -9.4291   -9.1154   -9.1154   -8.6085   -8.6084   -7.6893   -7.6893
          -6.3372   -6.3372   -6.1996   -6.1996   -5.5745   -5.5743   -5.0328   -5.0328   -4.8377   -4.8375
   -2.0611   -2.0610    0.3248    0.3248    2.3633    2.3633    6.3828    6.3830    9.1406    9.1407
    9.5261    9.5262   10.7913   10.7914   11.8875   11.8876
  96  1  -10.0086  -10.0085   -9.7485   -9.7485   -9.1595   -9.1595   -8.7895   -8.7895   -7.5296   -7.5296
          -6.1615   -6.1615   -5.1172   -5.1168   -5.0530   -5.0530   -4.6389   -4.6389   -4.6377   -4.6376
   -1.1468   -1.1468    2.6068    2.6068    3.5997    3.5998    4.2064    4.2065    5.4300    5.4300
    8.3948    8.3949    8.9097    8.9097    9.1287    9.1290
  97  1   -9.6984   -9.3685   -9.2444   -9.1688   -8.9519   -8.8978   -8.7526   -8.3569   -8.1199   -7.5945
          -7.0986   -6.9135   -6.3657   -6.0896   -5.9943   -5.7016   -5.6919   -5.5610   -5.4753   -4.9089
   -4.4655   -2.8301   -0.2403    2.2752    2.3584    4.3530    5.9005    6.1180    8.2818    8.5811
   10.9122   10.9588   11.3651   14.7248   15.2366   15.8363
  98  1  -10.0959   -9.8998   -9.3302   -8.7637   -8.7366   -8.5619   -8.3064   -7.8786   -7.8536   -7.7454
          -7.5812   -7.4226   -7.1652   -6.9105   -6.9032   -6.4312   -5.7513   -5.6037   -5.3845   -5.3691
   -5.0535   -4.3006   -1.6179    0.9931    1.8423    2.6879    6.7067    9.2336   10.7437   11.5766
   11.8562   15.3767   16.1816   16.4387   20.2722   20.6991
  99  1  -10.5204  -10.4410   -9.7981   -9.3010   -8.3976   -8.1048   -7.9647   -7.6069   -7.6018   -7.4542
          -7.4115   -7.3395   -7.2534   -7.0232   -6.7121   -6.6430   -6.3138   -5.5746   -5.5269   -5.3394
   -5.1980   -4.9304   -2.4021    0.3307    1.2897    1.9050    6.1376    9.9032   10.5335   14.8244
   16.2529   16.5573   18.0054   19.9837   20.2598   22.1168
 100  1  -10.0959   -9.8998   -9.3302   -8.7637   -8.7366   -8.5619   -8.3064   -7.8786   -7.8536   -7.7454
          -7.5812   -7.4226   -7.1652   -6.9105   -6.9032   -6.4312   -5.7513   -5.6037   -5.3845   -5.3691
   -5.0535   -4.3006   -1.6179    0.9931    1.8423    2.6879    6.7067    9.2336   10.7437   11.5766
   11.8562   15.3767   16.1816   16.4387   20.2722   20.6991
 101  1   -9.6984   -9.3685   -9.2444   -9.1688   -8.9519   -8.8978   -8.7526   -8.3569   -8.1199   -7.5945
          -7.0986   -6.9135   -6.3657   -6.0896   -5.9943   -5.7016   -5.6919   -5.5610   -5.4753   -4.9089
   -4.4655   -2.8301   -0.2403    2.2752    2.3584    4.3530    5.9005    6.1180    8.2818    8.5811
   10.9122   10.9588   11.3651   14.7248   15.2366   15.8363
 102  1   -9.7070   -9.7069   -9.3191   -9.3191   -9.2782   -9.2782   -8.6988   -8.6987   -7.4872   -7.4872
          -6.3686   -6.3686   -6.2229   -6.2229   -5.7597   -5.7596   -4.9917   -4.9916   -4.8208   -4.8207
   -1.7485   -1.7484   -0.1039   -0.1039    2.9114    2.9115    5.6489    5.6490    9.1804    9.1804
    9.4551    9.4551   11.2595   11.2596   11.9362   11.9363
 103  1  -10.0959   -9.8998   -9.3302   -8.7637   -8.7366   -8.5619   -8.3064   -7.8786   -7.8536   -7.7454
          -7.5812   -7.4226   -7.1652   -6.9105   -6.9032   -6.4312   -5.7513   -5.6037   -5.3845   -5.3691
   -5.0535   -4.3006   -1.6179    0.9931    1.8423    2.6879    6.7067    9.2336   10.7437   11.5766
   11.8562   15.3767   16.1816   16.4387   20.2722   20.6991
 104  1  -11.2106  -10.4188   -9.2519   -9.0367   -9.0323   -8.7760   -8.3281   -8.3012   -8.0630   -7.4666
          -7.3587   -7.3231   -7.1712   -6.9631   -6.7981   -6.6484   -6.0836   -5.8651   -5.8306   -5.7869
   -5.1541   -4.9077   -3.1308   -0.4853    6.0457    6.8979    8.7022    9.0578    9.9751   14.0489
   14.2207   16.3977   17.9066   17.9688   22.5657   23.2790
 105  1  -11.7259  -10.8991   -9.6970   -9.6262   -9.2951   -8.8860   -8.1720   -7.9395   -7.5111   -7.5042
          -7.4067   -7.3737   -7.2864   -6.4539   -6.3743   -6.3004   -6.2942   -6.2448   -5.8192   -5.7566
   -5.0179   -4.8240   -4.1250   -1.3686    5.1870    7.8175    8.7152   11.2655   13.5444   13.5971
   15.9867   18.1995   19.3103   22.4320   22.5805   22.7297
 106  1  -11.2106  -10.4188   -9.2519   -9.0367   -9.0323   -8.7760   -8.3281   -8.3012   -8.0630   -7.4666
          -7.3587   -7.3231   -7.1712   -6.9631   -6.7981   -6.6484   -6.0836   -5.8651   -5.8306   -5.7869
   -5.1541   -4.9077   -3.1308   -0.4853    6.0457    6.8979    8.7022    9.0578    9.9751   14.0489
   14.2207   16.3977   17.9066   17.9688   22.5657   23.2790
 107  1  -10.0959   -9.8998   -9.3302   -8.7637   -8.7366   -8.5619   -8.3064   -7.8786   -7.8536   -7.7454
          -7.5812   -7.4226   -7.1652   -6.9105   -6.9032   -6.4312   -5.7513   -5.6037   -5.3845   -5.3691
   -5.0535   -4.3006   -1.6179    0.9931    1.8423    2.6879    6.7067    9.2336   10.7437   11.5766
   11.8562   15.3767   16.1816   16.4387   20.2722   20.6991
 108  1   -9.7714   -9.7714   -9.3985   -9.3984   -8.3971   -8.3971   -8.1293   -8.1293   -7.8524   -7.8523
          -7.2421   -7.2420   -6.9871   -6.9870   -6.6064   -6.6063   -5.1958   -5.1957   -4.9414   -4.9412
   -2.8035   -2.8034   -2.0531   -2.0530    1.5111    1.5113    5.0287    5.0289   12.5989   12.5992
   15.8791   15.8792   16.0861   16.0861   16.2697   16.2698
 109  1  -10.5204  -10.4410   -9.7981   -9.3010   -8.3976   -8.1048   -7.9647   -7.6069   -7.6018   -7.4542
          -7.4115   -7.3395   -7.2534   -7.0232   -6.7121   -6.6430   -6.3138   -5.5746   -5.5269   -5.3394
   -5.1980   -4.9304   -2.4021    0.3307    1.2897    1.9050    6.1376    9.9032   10.5335   14.8244
   16.2529   16.5573   18.0054   19.9837   20.2598   22.1168
 110  1  -11.7259  -10.8991   -9.6970   -9.6262   -9.2951   -8.8860   -8.1720   -7.9395   -7.5111   -7.5042
          -7.4067   -7.3737   -7.2864   -6.4539   -6.3743   -6.3004   -6.2942   -6.2448   -5.8192   -5.7566
   -5.0179   -4.8240   -4.1250   -1.3686    5.1870    7.8175    8.7152   11.2655   13.5444   13.5971
   15.9867   18.1995   19.3103   22.4320   22.5805   22.7297
 111  1  -12.2511  -11.3049  -10.0148   -9.8988   -9.7123   -9.3111   -8.3777   -7.8716   -7.6285   -7.6285
          -7.1213   -7.1213   -6.8452   -6.3564   -6.1498   -6.0575   -5.9088   -5.7725   -5.7725   -5.3703
   -5.0911   -4.8979   -4.8979   -3.2542    7.2278    9.9102    9.9102   12.5769   12.5769   15.3360
   18.8479   18.8479   22.6281   22.6281   23.1445   23.6983
 112  1  -11.7259  -10.8991   -9.6970   -9.6262   -9.2951   -8.8860   -8.1720   -7.9395   -7.5111   -7.5042
          -7.4067   -7.3737   -7.2864   -6.4539   -6.3743   -6.3004   -6.2942   -6.2448   -5.8192   -5.7566
   -5.0179   -4.8240   -4.1250   -1.3686    5.1870    7.8175    8.7152   11.2655   13.5444   13.5971
   15.9867   18.1995   19.3103   22.4320   22.5805   22.7297
 113  1  -10.5204  -10.4410   -9.7981   -9.3010   -8.3976   -8.1048   -7.9647   -7.6069   -7.6018   -7.4542
          -7.4115   -7.3395   -7.2534   -7.0232   -6.7121   -6.6430   -6.3138   -5.5746   -5.5269   -5.3394
   -5.1980   -4.9304   -2.4021    0.3307    1.2897    1.9050    6.1376    9.9032   10.5335   14.8244
   16.2529   16.5573   18.0054   19.9837   20.2598   22.1168
 114  1  -10.2070  -10.2069   -9.5942   -9.5941   -8.0303   -8.0301   -7.8426   -7.8424   -7.6656   -7.6655
          -7.3783   -7.3782   -7.1817   -7.1816   -5.8169   -5.8168   -5.7953   -5.7951   -5.1585   -5.1584
   -3.3997   -3.3997   -3.1741   -3.1741    1.2622    1.2624    4.7765    4.7767   13.0858   13.0861
   17.8646   17.8646   19.0687   19.0687   19.2121   19.2121
 115  1  -10.0959   -9.8998   -9.3302   -8.7637   -8.7366   -8.5619   -8.3064   -7.8786   -7.8536   -7.7454
          -7.5812   -7.4226   -7.1652   -6.9105   -6.9032   -6.4312   -5.7513   -5.6037   -5.3845   -5.3691
   -5.0535   -4.3006   -1.6179    0.9931    1.8423    2.6879    6.7067    9.2336   10.7437   11.5766
   11.8562   15.3767   16.1816   16.4387   20.2722   20.6991
 116  1  -11.2106  -10.4188   -9.2519   -9.0367   -9.0323   -8.7760   -8.3281   -8.3012   -8.0630   -7.4666
          -7.3587   -7.3231   -7.1712   -6.9631   -6.7981   -6.6484   -6.0836   -5.8651   -5.8306   -5.7869
   -5.1541   -4.9077   -3.1308   -0.4853    6.0457    6.8979    8.7022    9.0578    9.9751   14.0489
   14.2207   16.3977   17.9066   17.9688   22.5657   23.2790
 117  1  -11.7259  -10.8991   -9.6970   -9.6262   -9.2951   -8.8860   -8.1720   -7.9395   -7.5111   -7.5042
          -7.4067   -7.3737   -7.2864   -6.4539   -6.3743   -6.3004   -6.2942   -6.2448   -5.8192   -5.7566
   -5.0179   -4.8240   -4.1250   -1.3686    5.1870    7.8175    8.7152   11.2655   13.5444   13.5971
   15.9867   18.1995   19.3103   22.4320   22.5805   22.7297
 118  1  -11.2106  -10.4188   -9.2519   -9.0367   -9.0323   -8.7760   -8.3281   -8.3012   -8.0630   -7.4666
          -7.3587   -7.3231   -7.1712   -6.9631   -6.7981   -6.6484   -6.0836   -5.8651   -5.8306   -5.7869
   -5.1541   -4.9077   -3.1308   -0.4853    6.0457    6.8979    8.7022    9.0578    9.9751   14.0489
   14.2207   16.3977   17.9066   17.9688   22.5657   23.2790
 119  1  -10.0959   -9.8998   -9.3302   -8.7637   -8.7366   -8.5619   -8.3064   -7.8786   -7.8536   -7.7454
          -7.5812   -7.4226   -7.1652   -6.9105   -6.9032   -6.4312   -5.7513   -5.6037   -5.3845   -5.3691
   -5.0535   -4.3006   -1.6179    0.9931    1.8423    2.6879    6.7067    9.2336   10.7437   11.5766
   11.8562   15.3767   16.1816   16.4387   20.2722   20.6991
 120  1   -9.7714   -9.7714   -9.3985   -9.3984   -8.3971   -8.3971   -8.1293   -8.1293   -7.8524   -7.8523
          -7.2421   -7.2420   -6.9871   -6.9870   -6.6064   -6.6063   -5.1958   -5.1957   -4.9414   -4.9412
   -2.8035   -2.8034   -2.0531   -2.0530    1.5111    1.5113    5.0287    5.0289   12.5989   12.5992
   15.8791   15.8792   16.0861   16.0861   16.2697   16.2698
 121  1   -9.6984   -9.3685   -9.2444   -9.1688   -8.9519   -8.8978   -8.7526   -8.3569   -8.1199   -7.5945
          -7.0986   -6.9135   -6.3657   -6.0896   -5.9943   -5.7016   -5.6919   -5.5610   -5.4753   -4.9089
   -4.4655   -2.8301   -0.2403    2.2752    2.3584    4.3530    5.9005    6.1180    8.2818    8.5811
   10.9122   10.9588   11.3651   14.7248   15.2366   15.8363
 122  1  -10.0959   -9.8998   -9.3302   -8.7637   -8.7366   -8.5619   -8.3064   -7.8786   -7.8536   -7.7454
          -7.5812   -7.4226   -7.1652   -6.9105   -6.9032   -6.4312   -5.7513   -5.6037   -5.3845   -5.3691
   -5.0535   -4.3006   -1.6179    0.9931    1.8423    2.6879    6.7067    9.2336   10.7437   11.5766
   11.8562   15.3767   16.1816   16.4387   20.2722   20.6991
 123  1  -10.5204  -10.4410   -9.7981   -9.3010   -8.3976   -8.1048   -7.9647   -7.6069   -7.6018   -7.4542
          -7.4115   -7.3395   -7.2534   -7.0232   -6.7121   -6.6430   -6.3138   -5.5746   -5.5269   -5.3394
   -5.1980   -4.9304   -2.4021    0.3307    1.2897    1.9050    6.1376    9.9032   10.5335   14.8244
   16.2529   16.5573   18.0054   19.9837   20.2598   22.1168
 124  1  -10.0959   -9.8998   -9.3302   -8.7637   -8.7366   -8.5619   -8.3064   -7.8786   -7.8536   -7.7454
          -7.5812   -7.4226   -7.1652   -6.9105   -6.9032   -6.4312   -5.7513   -5.6037   -5.3845   -5.3691
   -5.0535   -4.3006   -1.6179    0.9931    1.8423    2.6879    6.7067    9.2336   10.7437   11.5766
   11.8562   15.3767   16.1816   16.4387   20.2722   20.6991
 125  1   -9.6984   -9.3685   -9.2444   -9.1688   -8.9519   -8.8978   -8.7526   -8.3569   -8.1199   -7.5945
          -7.0986   -6.9135   -6.3657   -6.0896   -5.9943   -5.7016   -5.6919   -5.5610   -5.4753   -4.9089
   -4.4655   -2.8301   -0.2403    2.2752    2.3584    4.3530    5.9005    6.1180    8.2818    8.5811
   10.9122   10.9588   11.3651   14.7248   15.2366   15.8363
 126  1   -9.7070   -9.7069   -9.3191   -9.3191   -9.2782   -9.2782   -8.6988   -8.6987   -7.4872   -7.4872
          -6.3686   -6.3686   -6.2229   -6.2229   -5.7597   -5.7596   -4.9917   -4.9916   -4.8208   -4.8207
   -1.7485   -1.7484   -0.1039   -0.1039    2.9114    2.9115    5.6489    5.6490    9.1804    9.1804
    9.4551    9.4551   11.2595   11.2596   11.9362   11.9363
 127  1   -9.7070   -9.7069   -9.3191   -9.3191   -9.2782   -9.2782   -8.6988   -8.6987   -7.4872   -7.4872
          -6.3686   -6.3686   -6.2229   -6.2229   -5.7597   -5.7596   -4.9917   -4.9916   -4.8208   -4.8207
   -1.7485   -1.7484   -0.1039   -0.1039    2.9114    2.9115    5.6489    5.6490    9.1804    9.1804
    9.4551    9.4551   11.2595   11.2596   11.9362   11.9363
 128  1   -9.7714   -9.7714   -9.3985   -9.3984   -8.3971   -8.3971   -8.1293   -8.1293   -7.8524   -7.8523
          -7.2421   -7.2420   -6.9871   -6.9870   -6.6064   -6.6063   -5.1958   -5.1957   -4.9414   -4.9412
   -2.8035   -2.8034   -2.0531   -2.0530    1.5111    1.5113    5.0287    5.0289   12.5989   12.5992
   15.8791   15.8792   16.0861   16.0861   16.2697   16.2698
 129  1  -10.2070  -10.2069   -9.5942   -9.5941   -8.0303   -8.0301   -7.8426   -7.8424   -7.6656   -7.6655
          -7.3783   -7.3782   -7.1817   -7.1816   -5.8169   -5.8168   -5.7953   -5.7951   -5.1585   -5.1584
   -3.3997   -3.3997   -3.1741   -3.1741    1.2622    1.2624    4.7765    4.7767   13.0858   13.0861
   17.8646   17.8646   19.0687   19.0687   19.2121   19.2121
 130  1   -9.7714   -9.7714   -9.3985   -9.3984   -8.3971   -8.3971   -8.1293   -8.1293   -7.8524   -7.8523
          -7.2421   -7.2420   -6.9871   -6.9870   -6.6064   -6.6063   -5.1958   -5.1957   -4.9414   -4.9412
   -2.8035   -2.8034   -2.0531   -2.0530    1.5111    1.5113    5.0287    5.0289   12.5989   12.5992
   15.8791   15.8792   16.0861   16.0861   16.2697   16.2698
 131  1   -9.7070   -9.7069   -9.3191   -9.3191   -9.2782   -9.2782   -8.6988   -8.6987   -7.4872   -7.4872
          -6.3686   -6.3686   -6.2229   -6.2229   -5.7597   -5.7596   -4.9917   -4.9916   -4.8208   -4.8207
   -1.7485   -1.7484   -0.1039   -0.1039    2.9114    2.9115    5.6489    5.6490    9.1804    9.1804
    9.4551    9.4551   11.2595   11.2596   11.9362   11.9363
 132  1   -9.9159   -9.9158   -9.6682   -9.6682   -9.3090   -9.3090   -9.0284   -9.0284   -7.1440   -7.1440
          -5.9827   -5.9826   -5.4438   -5.4438   -5.2339   -5.2335   -4.6387   -4.6387   -4.6378   -4.6378
   -0.6459   -0.6459    1.9106    1.9106    3.6776    3.6777    4.1191    4.1191    6.1207    6.1207
    8.4724    8.4724    8.5139    8.5139    9.0008    9.0010
 133  1   -9.5527   -9.3477   -9.2491   -9.1691   -9.1558   -8.9084   -8.7705   -8.4856   -7.8620   -7.4267
          -7.2554   -7.1778   -6.2542   -6.0605   -5.9328   -5.7021   -5.6959   -5.6614   -5.3627   -5.0671
   -4.0490   -3.2290    0.3310    1.6498    2.6933    3.7469    5.8729    5.9850    8.8932    9.3279
   10.2604   10.7499   12.0380   14.0044   15.4580   15.7549
 134  1  -10.0598   -9.9616   -9.1993   -8.9123   -8.6512   -8.4274   -8.4061   -8.0088   -7.7848   -7.7321
          -7.6538   -7.5157   -7.1210   -6.9959   -6.7805   -6.5306   -5.6684   -5.5040   -5.2596   -5.2575
   -5.1069   -4.6341   -0.9388    0.6170    1.5530    2.2305    7.6170    9.6455   10.1924   11.3464
   12.4538   15.1172   15.8688   16.3423   20.4200   20.6028
 135  1  -10.5214  -10.4849   -9.6545   -9.3959   -8.3608   -8.2067   -7.7304   -7.5737   -7.5725   -7.4429
          -7.4401   -7.3309   -7.1362   -7.1179   -7.0080   -6.8061   -6.1126   -5.7134   -5.5710   -5.4151
   -5.0920   -4.9514   -1.5803    0.2481    0.6419    1.4187    7.1078    9.3103   11.6100   15.0197
   15.0737   15.7896   18.8780   20.0088   20.6157   21.7020
 136  1  -10.0598   -9.9616   -9.1993   -8.9123   -8.6512   -8.4274   -8.4061   -8.0088   -7.7848   -7.7321
          -7.6538   -7.5157   -7.1210   -6.9959   -6.7805   -6.5306   -5.6684   -5.5040   -5.2596   -5.2575
   -5.1069   -4.6341   -0.9388    0.6170    1.5530    2.2305    7.6170    9.6455   10.1924   11.3464
   12.4538   15.1172   15.8688   16.3423   20.4200   20.6028
 137  1   -9.5527   -9.3477   -9.2491   -9.1691   -9.1558   -8.9084   -8.7705   -8.4856   -7.8620   -7.4267
          -7.2554   -7.1778   -6.2542   -6.0605   -5.9328   -5.7021   -5.6959   -5.6614   -5.3627   -5.0671
   -4.0490   -3.2290    0.3310    1.6498    2.6933    3.7469    5.8729    5.9850    8.8932    9.3279
   10.2604   10.7499   12.0380   14.0044   15.4580   15.7549
 138  1   -9.6373   -9.6372   -9.4217   -9.4216   -9.1787   -9.1787   -8.8494   -8.8494   -7.2195   -7.2195
          -6.6244   -6.6243   -6.1075   -6.1074   -5.8923   -5.8922   -4.9401   -4.9400   -4.8418   -4.8417
   -1.3731   -1.3730   -0.5359   -0.5359    3.5194    3.5195    4.9013    4.9014    9.2346    9.2346
    9.3769    9.3769   11.6218   11.6219   11.9372   11.9372
 139  1  -10.0598   -9.9616   -9.1993   -8.9123   -8.6512   -8.4274   -8.4061   -8.0088   -7.7848   -7.7321
          -7.6538   -7.5157   -7.1210   -6.9959   -6.7805   -6.5306   -5.6684   -5.5040   -5.2596   -5.2575
   -5.1069   -4.6341   -0.9388    0.6170    1.5530    2.2305    7.6170    9.6455   10.1924   11.3464
   12.4538   15.1172   15.8688   16.3423   20.4200   20.6028
 140  1  -11.0621  -10.6611   -9.1742   -9.0300   -8.9840   -8.8539   -8.2965   -8.2883   -7.9545   -7.5631
          -7.4247   -7.3682   -7.1566   -7.0596   -6.7527   -6.6451   -5.9541   -5.8284   -5.7576   -5.5443
   -5.3889   -5.0934   -2.5996   -1.2751    6.7902    7.3066    8.0498    8.3968   11.2626   14.6250
   15.0892   15.2136   17.0586   17.1354   22.8651   23.2080
 141  1  -11.5718  -11.1532   -9.6586   -9.6063   -9.2188   -9.0098   -8.0777   -7.9555   -7.4784   -7.4778
          -7.3999   -7.3670   -7.1393   -6.6093   -6.3731   -6.3099   -6.2747   -6.2001   -5.9583   -5.9186
   -4.9325   -4.8352   -3.5268   -2.1415    5.8101    7.0982   10.2731   11.6890   12.8624   14.0383
   14.7085   17.0695   20.2985   22.0438   22.6514   22.7427
 142  1  -11.0621  -10.6611   -9.1742   -9.0300   -8.9840   -8.8539   -8.2965   -8.2883   -7.9545   -7.5631
          -7.4247   -7.3682   -7.1566   -7.0596   -6.7527   -6.6451   -5.9541   -5.8284   -5.7576   -5.5443
   -5.3889   -5.0934   -2.5996   -1.2751    6.7902    7.3066    8.0498    8.3968   11.2626   14.6250
   15.0892   15.2136   17.0586   17.1354   22.8651   23.2080
 143  1  -10.0598   -9.9616   -9.1993   -8.9123   -8.6512   -8.4274   -8.4061   -8.0088   -7.7848   -7.7321
          -7.6538   -7.5157   -7.1210   -6.9959   -6.7805   -6.5306   -5.6684   -5.5040   -5.2596   -5.2575
   -5.1069   -4.6341   -0.9388    0.6170    1.5530    2.2305    7.6170    9.6455   10.1924   11.3464
   12.4538   15.1172   15.8688   16.3423   20.4200   20.6028
 144  1   -9.7057   -9.7057   -9.5188   -9.5188   -8.2876   -8.2876   -8.1626   -8.1626   -7.6832   -7.6832
          -7.2307   -7.2306   -7.1258   -7.1258   -6.8078   -6.8077   -5.0541   -5.0539   -4.9291   -4.9289
   -2.6726   -2.6725   -2.2894   -2.2894    2.2265    2.2267    3.9932    3.9934   13.7861   13.7863
   15.6509   15.6510   15.9254   15.9254   16.0345   16.0345
 145  1  -10.5214  -10.4849   -9.6545   -9.3959   -8.3608   -8.2067   -7.7304   -7.5737   -7.5725   -7.4429
          -7.4401   -7.3309   -7.1362   -7.1179   -7.0080   -6.8061   -6.1126   -5.7134   -5.5710   -5.4151
   -5.0920   -4.9514   -1.5803    0.2481    0.6419    1.4187    7.1078    9.3103   11.6100   15.0197
   15.0737   15.7896   18.8780   20.0088   20.6157   21.7020
 146  1  -11.5718  -11.1532   -9.6586   -9.6063   -9.2188   -9.0098   -8.0777   -7.9555   -7.4784   -7.4778
          -7.3999   -7.3670   -7.1393   -6.6093   -6.3731   -6.3099   -6.2747   -6.2001   -5.9583   -5.9186
   -4.9325   -4.8352   -3.5268   -2.1415    5.8101    7.0982   10.2731   11.6890   12.8624   14.0383
   14.7085   17.0695   20.2985   22.0438   22.6514   22.7427
 147  1  -12.0800  -11.6017   -9.9694   -9.8935   -9.6391   -9.4370   -8.2271   -7.9697   -7.5388   -7.5388
          -7.2844   -7.2844   -6.7177   -6.4618   -6.1054   -5.9837   -5.5259   -5.5259   -5.4713   -5.2863
   -5.1445   -5.0786   -5.0786   -4.0365    9.0299   10.4061   10.4061   11.7510   11.7510   13.1852
   19.9323   19.9323   21.8626   21.8626   23.4495   23.6768
 148  1  -11.5718  -11.1532   -9.6586   -9.6063   -9.2188   -9.0098   -8.0777   -7.9555   -7.4784   -7.4778
          -7.3999   -7.3670   -7.1393   -6.6093   -6.3731   -6.3099   -6.2747   -6.2001   -5.9583   -5.9186
   -4.9325   -4.8352   -3.5268   -2.1415    5.8101    7.0982   10.2731   11.6890   12.8624   14.0383
   14.7085   17.0695   20.2985   22.0438   22.6514   22.7427
 149  1  -10.5214  -10.4849   -9.6545   -9.3959   -8.3608   -8.2067   -7.7304   -7.5737   -7.5725   -7.4429
          -7.4401   -7.3309   -7.1362   -7.1179   -7.0080   -6.8061   -6.1126   -5.7134   -5.5710   -5.4151
   -5.0920   -4.9514   -1.5803    0.2481    0.6419    1.4187    7.1078    9.3103   11.6100   15.0197
   15.0737   15.7896   18.8780   20.0088   20.6157   21.7020
 150  1  -10.0957  -10.0957   -9.7858   -9.7858   -7.9773   -7.9772   -7.8829   -7.8827   -7.5754   -7.5753
          -7.3297   -7.3296   -7.0143   -7.0142   -6.2059   -6.2058   -5.6280   -5.6279   -5.2905   -5.2904
   -3.3009   -3.3009   -3.1968   -3.1968    1.9331    1.9333    3.7041    3.7043   14.5224   14.5227
   16.9654   16.9656   19.1035   19.1035   19.1788   19.1789
 151  1  -10.0598   -9.9616   -9.1993   -8.9123   -8.6512   -8.4274   -8.4061   -8.0088   -7.7848   -7.7321
          -7.6538   -7.5157   -7.1210   -6.9959   -6.7805   -6.5306   -5.6684   -5.5040   -5.2596   -5.2575
   -5.1069   -4.6341   -0.9388    0.6170    1.5530    2.2305    7.6170    9.6455   10.1924   11.3464
   12.4538   15.1172   15.8688   16.3423   20.4200   20.6028
 152  1  -11.0621  -10.6611   -9.1742   -9.0300   -8.9840   -8.8539   -8.2965   -8.2883   -7.9545   -7.5631
          -7.4247   -7.3682   -7.1566   -7.0596   -6.7527   -6.6451   -5.9541   -5.8284   -5.7576   -5.5443
   -5.3889   -5.0934   -2.5996   -1.2751    6.7902    7.3066    8.0498    8.3968   11.2626   14.6250
   15.0892   15.2136   17.0586   17.1354   22.8651   23.2080
 153  1  -11.5718  -11.1532   -9.6586   -9.6063   -9.2188   -9.0098   -8.0777   -7.9555   -7.4784   -7.4778
          -7.3999   -7.3670   -7.1393   -6.6093   -6.3731   -6.3099   -6.2747   -6.2001   -5.9583   -5.9186
   -4.9325   -4.8352   -3.5268   -2.1415    5.8101    7.0982   10.2731   11.6890   12.8624   14.0383
   14.7085   17.0695   20.2985   22.0438   22.6514   22.7427
[...]
   -5.1069   -4.6341   -0.9388    0.6170    1.5530    2.2305    7.6170    9.6455   10.1924   11.3464
   12.4538   15.1172   15.8688   16.3423   20.4200   20.6028
 159  1  -10.5214  -10.4849   -9.6545   -9.3959   -8.3608   -8.2067   -7.7304   -7.5737   -7.5725   -7.4429
          -7.4401   -7.3309   -7.1362   -7.1179   -7.0080   -6.8061   -6.1126   -5.7134   -5.5710   -5.4151
   -5.0920   -4.9514   -1.5803    0.2481    0.6419    1.4187    7.1078    9.3103   11.6100   15.0197
   15.0737   15.7896   18.8780   20.0088   20.6157   21.7020
 160  1  -10.0598   -9.9616   -9.1993   -8.9123   -8.6512   -8.4274   -8.4061   -8.0088   -7.7848   -7.7321
          -7.6538   -7.5157   -7.1210   -6.9959   -6.7805   -6.5306   -5.6684   -5.5040   -5.2596   -5.2575
   -5.1069   -4.6341   -0.9388    0.6170    1.5530    2.2305    7.6170    9.6455   10.1924   11.3464
   12.4538   15.1172   15.8688   16.3423   20.4200   20.6028
 161  1   -9.5527   -9.3477   -9.2491   -9.1691   -9.1558   -8.9084   -8.7705   -8.4856   -7.8620   -7.4267
          -7.2554   -7.1778   -6.2542   -6.0605   -5.9328   -5.7021   -5.6959   -5.6614   -5.3627   -5.0671
   -4.0490   -3.2290    0.3310    1.6498    2.6933    3.7469    5.8729    5.9850    8.8932    9.3279
   10.2604   10.7499   12.0380   14.0044   15.4580   15.7549
 162  1   -9.6373   -9.6372   -9.4217   -9.4216   -9.1787   -9.1787   -8.8494   -8.8494   -7.2195   -7.2195
          -6.6244   -6.6243   -6.1075   -6.1074   -5.8923   -5.8922   -4.9401   -4.9400   -4.8418   -4.8417
   -1.3731   -1.3730   -0.5359   -0.5359    3.5194    3.5195    4.9013    4.9014    9.2346    9.2346
    9.3769    9.3769   11.6218   11.6219   11.9372   11.9372
 163  1   -9.6373   -9.6372   -9.4217   -9.4216   -9.1787   -9.1787   -8.8494   -8.8494   -7.2195   -7.2195
          -6.6244   -6.6243   -6.1075   -6.1074   -5.8923   -5.8922   -4.9401   -4.9400   -4.8418   -4.8417
   -1.3731   -1.3730   -0.5359   -0.5359    3.5194    3.5195    4.9013    4.9014    9.2346    9.2346
    9.3769    9.3769   11.6218   11.6219   11.9372   11.9372
 164  1   -9.7057   -9.7057   -9.5188   -9.5188   -8.2876   -8.2876   -8.1626   -8.1626   -7.6832   -7.6832
          -7.2307   -7.2306   -7.1258   -7.1258   -6.8078   -6.8077   -5.0541   -5.0539   -4.9291   -4.9289
   -2.6726   -2.6725   -2.2894   -2.2894    2.2265    2.2267    3.9932    3.9934   13.7861   13.7863
   15.6509   15.6510   15.9254   15.9254   16.0345   16.0345
 165  1  -10.0957  -10.0957   -9.7858   -9.7858   -7.9773   -7.9772   -7.8829   -7.8827   -7.5754   -7.5753
          -7.3297   -7.3296   -7.0143   -7.0142   -6.2059   -6.2058   -5.6280   -5.6279   -5.2905   -5.2904
   -3.3009   -3.3009   -3.1968   -3.1968    1.9331    1.9333    3.7041    3.7043   14.5224   14.5227
   16.9654   16.9656   19.1035   19.1035   19.1788   19.1789
 166  1   -9.7057   -9.7057   -9.5188   -9.5188   -8.2876   -8.2876   -8.1626   -8.1626   -7.6832   -7.6832
          -7.2307   -7.2306   -7.1258   -7.1258   -6.8078   -6.8077   -5.0541   -5.0539   -4.9291   -4.9289
   -2.6726   -2.6725   -2.2894   -2.2894    2.2265    2.2267    3.9932    3.9934   13.7861   13.7863
   15.6509   15.6510   15.9254   15.9254   16.0345   16.0345
 167  1   -9.6373   -9.6372   -9.4217   -9.4216   -9.1787   -9.1787   -8.8494   -8.8494   -7.2195   -7.2195
          -6.6244   -6.6243   -6.1075   -6.1074   -5.8923   -5.8922   -4.9401   -4.9400   -4.8418   -4.8417
   -1.3731   -1.3730   -0.5359   -0.5359    3.5194    3.5195    4.9013    4.9014    9.2346    9.2346
    9.3769    9.3769   11.6218   11.6219   11.9372   11.9372
 168  1   -9.7916   -9.7915   -9.5559   -9.5559   -9.4764   -9.4763   -9.2358   -9.2358   -6.7352   -6.7352
          -5.8725   -5.8725   -5.7794   -5.7793   -5.3897   -5.3893   -4.6385   -4.6385   -4.6380   -4.6380
   -0.0642   -0.0642    1.2281    1.2281    3.7783    3.7783    4.0107    4.0107    6.7905    6.7905
    8.0091    8.0091    8.5786    8.5786    8.8544    8.8546
 169  1   -9.3737   -9.3737   -9.3084   -9.3084   -9.0434   -9.0434   -8.6293   -8.6293   -7.5726   -7.5726
          -7.2868   -7.2868   -6.1485   -6.1485   -5.7874   -5.7874   -5.6997   -5.6997   -5.2237   -5.2237
   -3.6356   -3.6356    0.9642    0.9642    3.1894    3.1894    5.9035    5.9035    9.5601    9.5601
   10.0590   10.0590   13.0936   13.0936   15.6302   15.6302
 170  1  -10.0149  -10.0149   -9.0594   -9.0594   -8.5450   -8.5450   -8.2170   -8.2170   -7.7260   -7.7260
          -7.6193   -7.6193   -7.0660   -7.0660   -6.6502   -6.6502   -5.5788   -5.5788   -5.1738   -5.1738
   -4.9559   -4.9559   -0.1796   -0.1796    1.8368    1.8368    8.5988    8.5988   10.8302   10.8302
   13.7245   13.7245   16.2163   16.2163   20.5186   20.5186
 171  1  -10.5109  -10.5109   -9.5171   -9.5171   -8.2951   -8.2951   -7.5779   -7.5779   -7.5183   -7.5183
          -7.3076   -7.3076   -7.2388   -7.2388   -6.9670   -6.9670   -5.9106   -5.9106   -5.4995   -5.4995
   -5.0069   -5.0069   -0.6948   -0.6948    0.9934    0.9934    8.1659    8.1659   13.3416   13.3416
   15.3957   15.3957   19.5483   19.5483   21.1954   21.1954
 172  1  -10.0149  -10.0149   -9.0594   -9.0594   -8.5450   -8.5450   -8.2170   -8.2170   -7.7260   -7.7260
          -7.6193   -7.6193   -7.0660   -7.0660   -6.6502   -6.6502   -5.5788   -5.5788   -5.1738   -5.1738
   -4.9559   -4.9559   -0.1796   -0.1796    1.8368    1.8368    8.5988    8.5988   10.8302   10.8302
   13.7245   13.7245   16.2163   16.2163   20.5186   20.5186
 173  1   -9.3737   -9.3737   -9.3084   -9.3084   -9.0434   -9.0434   -8.6293   -8.6293   -7.5726   -7.5726
          -7.2868   -7.2868   -6.1485   -6.1485   -5.7874   -5.7874   -5.6997   -5.6997   -5.2237   -5.2237
   -3.6356   -3.6356    0.9642    0.9642    3.1894    3.1894    5.9035    5.9035    9.5601    9.5601
   10.0590   10.0590   13.0936   13.0936   15.6302   15.6302
 174  1   -9.5420   -9.5420   -9.5419   -9.5419   -9.0174   -9.0174   -9.0174   -9.0174   -6.9216   -6.9216
          -6.9216   -6.9216   -5.9998   -5.9998   -5.9997   -5.9997   -4.8862   -4.8862   -4.8861   -4.8861
   -0.9628   -0.9628   -0.9627   -0.9627    4.1850    4.1850    4.1851    4.1851    9.3013    9.3013
    9.3013    9.3013   11.8443   11.8443   11.8443   11.8443
 175  1  -10.0149  -10.0149   -9.0594   -9.0594   -8.5450   -8.5450   -8.2170   -8.2170   -7.7260   -7.7260
          -7.6193   -7.6193   -7.0660   -7.0660   -6.6502   -6.6502   -5.5788   -5.5788   -5.1738   -5.1738
   -4.9559   -4.9559   -0.1796   -0.1796    1.8368    1.8368    8.5988    8.5988   10.8302   10.8302
   13.7245   13.7245   16.2163   16.2163   20.5186   20.5186
 176  1  -10.8774  -10.8774   -9.0917   -9.0917   -8.9240   -8.9240   -8.2844   -8.2844   -7.7718   -7.7718
          -7.3990   -7.3990   -7.1222   -7.1222   -6.6888   -6.6888   -5.8679   -5.8679   -5.5942   -5.5942
   -5.3095   -5.3095   -1.9817   -1.9817    7.4309    7.4309    7.8099    7.8099   12.8642   12.8642
   16.1047   16.1047   16.1987   16.1987   23.0726   23.0726
 177  1  -11.3794  -11.3794   -9.6237   -9.6237   -9.1226   -9.1226   -8.0028   -8.0028   -7.4349   -7.4349
          -7.4303   -7.4303   -6.8733   -6.8733   -6.3636   -6.3636   -6.0941   -6.0941   -6.0867   -6.0867
   -4.8711   -4.8711   -2.8645   -2.8645    6.4348    6.4348   12.0911   12.0911   12.2237   12.2237
   15.8938   15.8938   21.2215   21.2215   22.7569   22.7569
 178  1  -10.8774  -10.8774   -9.0917   -9.0917   -8.9240   -8.9240   -8.2844   -8.2844   -7.7718   -7.7718
          -7.3990   -7.3990   -7.1222   -7.1222   -6.6888   -6.6888   -5.8679   -5.8679   -5.5942   -5.5942
   -5.3095   -5.3095   -1.9817   -1.9817    7.4309    7.4309    7.8099    7.8099   12.8642   12.8642
   16.1047   16.1047   16.1987   16.1987   23.0726   23.0726
 179  1  -10.0149  -10.0149   -9.0594   -9.0594   -8.5450   -8.5450   -8.2170   -8.2170   -7.7260   -7.7260
          -7.6193   -7.6193   -7.0660   -7.0660   -6.6502   -6.6502   -5.5788   -5.5788   -5.1738   -5.1738
   -4.9559   -4.9559   -0.1796   -0.1796    1.8368    1.8368    8.5988    8.5988   10.8302   10.8302
   13.7245   13.7245   16.2163   16.2163   20.5186   20.5186
 180  1   -9.6215   -9.6215   -9.6214   -9.6214   -8.2130   -8.2130   -8.2130   -8.2130   -7.4673   -7.4673
          -7.4672   -7.4672   -6.9834   -6.9834   -6.9834   -6.9834   -4.9644   -4.9644   -4.9643   -4.9643
   -2.4996   -2.4996   -2.4996   -2.4996    3.0569    3.0569    3.0571    3.0571   14.8176   14.8176
   14.8178   14.8178   15.9787   15.9787   15.9788   15.9788
 181  1  -10.5109  -10.5109   -9.5171   -9.5171   -8.2951   -8.2951   -7.5779   -7.5779   -7.5183   -7.5183
          -7.3076   -7.3076   -7.2388   -7.2388   -6.9670   -6.9670   -5.9106   -5.9106   -5.4995   -5.4995
   -5.0069   -5.0069   -0.6948   -0.6948    0.9934    0.9934    8.1659    8.1659   13.3416   13.3416
   15.3957   15.3957   19.5483   19.5483   21.1954   21.1954
 182  1  -11.3794  -11.3794   -9.6237   -9.6237   -9.1226   -9.1226   -8.0028   -8.0028   -7.4349   -7.4349
          -7.4303   -7.4303   -6.8733   -6.8733   -6.3636   -6.3636   -6.0941   -6.0941   -6.0867   -6.0867
   -4.8711   -4.8711   -2.8645   -2.8645    6.4348    6.4348   12.0911   12.0911   12.2237   12.2237
   15.8938   15.8938   21.2215   21.2215   22.7569   22.7569
 183  1  -11.8623  -11.8623   -9.9242   -9.9242   -9.5469   -9.5469   -8.0896   -8.0896   -7.4239   -7.4239
          -7.4239   -7.4239   -6.5854   -6.5854   -6.0497   -6.0497   -5.2914   -5.2914   -5.2914   -5.2914
   -5.2103   -5.2103   -4.7874   -4.7874   11.0235   11.0235   11.0235   11.0235   11.0465   11.0465
   20.9504   20.9504   20.9504   20.9504   23.6078   23.6078
 184  1  -11.3794  -11.3794   -9.6237   -9.6237   -9.1226   -9.1226   -8.0028   -8.0028   -7.4349   -7.4349
          -7.4303   -7.4303   -6.8733   -6.8733   -6.3636   -6.3636   -6.0941   -6.0941   -6.0867   -6.0867
   -4.8711   -4.8711   -2.8645   -2.8645    6.4348    6.4348   12.0911   12.0911   12.2237   12.2237
   15.8938   15.8938   21.2215   21.2215   22.7569   22.7569
 185  1  -10.5109  -10.5109   -9.5171   -9.5171   -8.2951   -8.2951   -7.5779   -7.5779   -7.5183   -7.5183
          -7.3076   -7.3076   -7.2388   -7.2388   -6.9670   -6.9670   -5.9106   -5.9106   -5.4995   -5.4995
   -5.0069   -5.0069   -0.6948   -0.6948    0.9934    0.9934    8.1659    8.1659   13.3416   13.3416
   15.3957   15.3957   19.5483   19.5483   21.1954   21.1954
 186  1   -9.9545   -9.9545   -9.9545   -9.9545   -7.9286   -7.9286   -7.9284   -7.9284   -7.4625   -7.4625
          -7.4624   -7.4624   -6.6178   -6.6178   -6.6176   -6.6176   -5.4495   -5.4495   -5.4494   -5.4494
   -3.2362   -3.2362   -3.2362   -3.2362    2.7526    2.7526    2.7527    2.7527   15.8359   15.8359
   15.8361   15.8361   19.1414   19.1414   19.1415   19.1415
 187  1  -10.0149  -10.0149   -9.0594   -9.0594   -8.5450   -8.5450   -8.2170   -8.2170   -7.7260   -7.7260
          -7.6193   -7.6193   -7.0660   -7.0660   -6.6502   -6.6502   -5.5788   -5.5788   -5.1738   -5.1738
   -4.9559   -4.9559   -0.1796   -0.1796    1.8368    1.8368    8.5988    8.5988   10.8302   10.8302
   13.7245   13.7245   16.2163   16.2163   20.5186   20.5186
 188  1  -10.8774  -10.8774   -9.0917   -9.0917   -8.9240   -8.9240   -8.2844   -8.2844   -7.7718   -7.7718
          -7.3990   -7.3990   -7.1222   -7.1222   -6.6888   -6.6888   -5.8679   -5.8679   -5.5942   -5.5942
   -5.3095   -5.3095   -1.9817   -1.9817    7.4309    7.4309    7.8099    7.8099   12.8642   12.8642
   16.1047   16.1047   16.1987   16.1987   23.0726   23.0726
 189  1  -11.3794  -11.3794   -9.6237   -9.6237   -9.1226   -9.1226   -8.0028   -8.0028   -7.4349   -7.4349
          -7.4303   -7.4303   -6.8733   -6.8733   -6.3636   -6.3636   -6.0941   -6.0941   -6.0867   -6.0867
   -4.8711   -4.8711   -2.8645   -2.8645    6.4348    6.4348   12.0911   12.0911   12.2237   12.2237
   15.8938   15.8938   21.2215   21.2215   22.7569   22.7569
 190  1  -10.8774  -10.8774   -9.0917   -9.0917   -8.9240   -8.9240   -8.2844   -8.2844   -7.7718   -7.7718
          -7.3990   -7.3990   -7.1222   -7.1222   -6.6888   -6.6888   -5.8679   -5.8679   -5.5942   -5.5942
   -5.3095   -5.3095   -1.9817   -1.9817    7.4309    7.4309    7.8099    7.8099   12.8642   12.8642
   16.1047   16.1047   16.1987   16.1987   23.0726   23.0726
 191  1  -10.0149  -10.0149   -9.0594   -9.0594   -8.5450   -8.5450   -8.2170   -8.2170   -7.7260   -7.7260
          -7.6193   -7.6193   -7.0660   -7.0660   -6.6502   -6.6502   -5.5788   -5.5788   -5.1738   -5.1738
   -4.9559   -4.9559   -0.1796   -0.1796    1.8368    1.8368    8.5988    8.5988   10.8302   10.8302
   13.7245   13.7245   16.2163   16.2163   20.5186   20.5186
 192  1   -9.6215   -9.6215   -9.6214   -9.6214   -8.2130   -8.2130   -8.2130   -8.2130   -7.4673   -7.4673
          -7.4672   -7.4672   -6.9834   -6.9834   -6.9834   -6.9834   -4.9644   -4.9644   -4.9643   -4.9643
   -2.4996   -2.4996   -2.4996   -2.4996    3.0569    3.0569    3.0571    3.0571   14.8176   14.8176
   14.8178   14.8178   15.9787   15.9787   15.9788   15.9788
 193  1   -9.3737   -9.3737   -9.3084   -9.3084   -9.0434   -9.0434   -8.6293   -8.6293   -7.5726   -7.5726
          -7.2868   -7.2868   -6.1485   -6.1485   -5.7874   -5.7874   -5.6997   -5.6997   -5.2237   -5.2237
   -3.6356   -3.6356    0.9642    0.9642    3.1894    3.1894    5.9035    5.9035    9.5601    9.5601
   10.0590   10.0590   13.0936   13.0936   15.6302   15.6302
 194  1  -10.0149  -10.0149   -9.0594   -9.0594   -8.5450   -8.5450   -8.2170   -8.2170   -7.7260   -7.7260
          -7.6193   -7.6193   -7.0660   -7.0660   -6.6502   -6.6502   -5.5788   -5.5788   -5.1738   -5.1738
   -4.9559   -4.9559   -0.1796   -0.1796    1.8368    1.8368    8.5988    8.5988   10.8302   10.8302
   13.7245   13.7245   16.2163   16.2163   20.5186   20.5186
 195  1  -10.5109  -10.5109   -9.5171   -9.5171   -8.2951   -8.2951   -7.5779   -7.5779   -7.5183   -7.5183
          -7.3076   -7.3076   -7.2388   -7.2388   -6.9670   -6.9670   -5.9106   -5.9106   -5.4995   -5.4995
   -5.0069   -5.0069   -0.6948   -0.6948    0.9934    0.9934    8.1659    8.1659   13.3416   13.3416
   15.3957   15.3957   19.5483   19.5483   21.1954   21.1954
 196  1  -10.0149  -10.0149   -9.0594   -9.0594   -8.5450   -8.5450   -8.2170   -8.2170   -7.7260   -7.7260
          -7.6193   -7.6193   -7.0660   -7.0660   -6.6502   -6.6502   -5.5788   -5.5788   -5.1738   -5.1738
   -4.9559   -4.9559   -0.1796   -0.1796    1.8368    1.8368    8.5988    8.5988   10.8302   10.8302
   13.7245   13.7245   16.2163   16.2163   20.5186   20.5186
 197  1   -9.3737   -9.3737   -9.3084   -9.3084   -9.0434   -9.0434   -8.6293   -8.6293   -7.5726   -7.5726
          -7.2868   -7.2868   -6.1485   -6.1485   -5.7874   -5.7874   -5.6997   -5.6997   -5.2237   -5.2237
   -3.6356   -3.6356    0.9642    0.9642    3.1894    3.1894    5.9035    5.9035    9.5601    9.5601
   10.0590   10.0590   13.0936   13.0936   15.6302   15.6302
 198  1   -9.5420   -9.5420   -9.5419   -9.5419   -9.0174   -9.0174   -9.0174   -9.0174   -6.9216   -6.9216
          -6.9216   -6.9216   -5.9998   -5.9998   -5.9997   -5.9997   -4.8862   -4.8862   -4.8861   -4.8861
   -0.9628   -0.9628   -0.9627   -0.9627    4.1850    4.1850    4.1851    4.1851    9.3013    9.3013
    9.3013    9.3013   11.8443   11.8443   11.8443   11.8443
 199  1   -9.5420   -9.5420   -9.5419   -9.5419   -9.0174   -9.0174   -9.0174   -9.0174   -6.9216   -6.9216
          -6.9216   -6.9216   -5.9998   -5.9998   -5.9997   -5.9997   -4.8862   -4.8862   -4.8861   -4.8861
   -0.9628   -0.9628   -0.9627   -0.9627    4.1850    4.1850    4.1851    4.1851    9.3013    9.3013
    9.3013    9.3013   11.8443   11.8443   11.8443   11.8443
 200  1   -9.6215   -9.6215   -9.6214   -9.6214   -8.2130   -8.2130   -8.2130   -8.2130   -7.4673   -7.4673
          -7.4672   -7.4672   -6.9834   -6.9834   -6.9834   -6.9834   -4.9644   -4.9644   -4.9643   -4.9643
   -2.4996   -2.4996   -2.4996   -2.4996    3.0569    3.0569    3.0571    3.0571   14.8176   14.8176
   14.8178   14.8178   15.9787   15.9787   15.9788   15.9788
 201  1   -9.9545   -9.9545   -9.9545   -9.9545   -7.9286   -7.9286   -7.9284   -7.9284   -7.4625   -7.4625
          -7.4624   -7.4624   -6.6178   -6.6178   -6.6176   -6.6176   -5.4495   -5.4495   -5.4494   -5.4494
   -3.2362   -3.2362   -3.2362   -3.2362    2.7526    2.7526    2.7527    2.7527   15.8359   15.8359
   15.8361   15.8361   19.1414   19.1414   19.1415   19.1415
 202  1   -9.6215   -9.6215   -9.6214   -9.6214   -8.2130   -8.2130   -8.2130   -8.2130   -7.4673   -7.4673
          -7.4672   -7.4672   -6.9834   -6.9834   -6.9834   -6.9834   -4.9644   -4.9644   -4.9643   -4.9643
   -2.4996   -2.4996   -2.4996   -2.4996    3.0569    3.0569    3.0571    3.0571   14.8176   14.8176
   14.8178   14.8178   15.9787   15.9787   15.9788   15.9788
 203  1   -9.5420   -9.5420   -9.5419   -9.5419   -9.0174   -9.0174   -9.0174   -9.0174   -6.9216   -6.9216
          -6.9216   -6.9216   -5.9998   -5.9998   -5.9997   -5.9997   -4.8862   -4.8862   -4.8861   -4.8861
   -0.9628   -0.9628   -0.9627   -0.9627    4.1850    4.1850    4.1851    4.1851    9.3013    9.3013
    9.3013    9.3013   11.8443   11.8443   11.8443   11.8443
 204  1   -9.6420   -9.6420   -9.6418   -9.6418   -9.4117   -9.4117   -9.4117   -9.4117   -6.3084   -6.3084
          -6.3084   -6.3084   -5.5758   -5.5758   -5.5755   -5.5755   -4.6383   -4.6383   -4.6383   -4.6383
    0.5663    0.5663    0.5663    0.5663    3.8930    3.8930    3.8930    3.8930    7.4262    7.4262
    7.4262    7.4262    8.7089    8.7089    8.7090    8.7090
siesta: Fermi energy =      -2.805558 eV

siesta: Program's energy decomposition (eV):
siesta: Ebs     =      -319.342969
siesta: Eions   =      3801.028149
siesta: Ena     =        13.426793
siesta: Ekin    =      2613.138359
siesta: Enl     =     -1689.748727
siesta: Eso     =         0.000000
siesta: Edftu   =         0.000000
siesta: DEna    =         3.634927
siesta: DUscf   =         1.464772
siesta: DUext   =         0.000000
siesta: Ex      =     -2708.658136
siesta: Ec      =      -165.672528
siesta: Exc     =     -2874.330664
siesta: eta*DQ  =         0.000000
siesta: Emadel  =         0.000000
siesta: Emeta   =         0.000000
siesta: Emolmec =         0.000000
siesta: Ekinion =         0.000000
siesta: Eharris =     -5733.442689
siesta: Etot    =     -5733.442689
siesta: FreeEng =     -5733.446298

siesta: Final energy (eV):
siesta:  Band Struct. =    -319.342969
siesta:       Kinetic =    2613.138359
siesta:       Hartree =     408.964180
siesta:       Edftu   =       0.000000
siesta:       Eso     =       0.000000
siesta:    Ext. field =       0.000000
siesta:         Exch. =   -2708.658136
siesta:         Corr. =    -165.672528
siesta:   Exch.-corr. =   -2874.330664
siesta:  Ion-electron =   -2809.117255
siesta:       Ion-ion =   -3072.097310
siesta:       Ekinion =       0.000000
siesta:         Total =   -5733.442689
siesta:         Fermi =      -2.805558

siesta: Stress tensor (static) (eV/Ang**3):
siesta:    -0.136408    0.000000   -0.000000
siesta:     0.000000   -0.136408    0.000000
siesta:    -0.000000   -0.000000   -0.125572

siesta: Cell volume =         67.827326 Ang**3

siesta: Pressure (static):
siesta:                Solid            Molecule  Units
siesta:           0.00144632          0.00144632  Ry/Bohr**3
siesta:           0.13279626          0.13279626  eV/Ang**3
siesta:         212.76536275        212.76536275  kBar
(Free)E+ p_basis*V_orbitals  =       -5730.674604
(Free)Eharris+ p_basis*V_orbitals  =       -5730.674604

cite: Please see "ts_au_100_elec_1x1.bib" for an exhaustive BiBTeX file.
cite: Please clearly indicate Siesta version in published work: 5.0.0-alpha-56-g943f9ccc9
cite: This calculation has made use of the following articles
cite: which are encouraged to be cited in a published work.
        Primary SIESTA paper
          DOI: www.doi.org/10.1088/0953-8984/14/11/302


>> End of run:  29-APR-2022   9:34:18
Job completed
