Siesta Version  : 5.0.0-alpha-56-g943f9ccc9
Architecture    : x86_64-linux-gcc
Compiler version: GNU Fortran (GCC) 11.2.0
Compiler flags  : mpifort -m64 -fPIC -O3 -ftree-vectorize -fexpensive-optimizations -funroll-loops -fprefetch-loop-arrays -fgraphite -fipa-icf -fipa-pure-const -march=native -fschedule-fusion -fselective-scheduling -fstack-arrays -fmax-stack-var-size=10000 -fipa-sra -fipa-cp -fcheck=recursion,array-temps -fno-second-underscore -Wrealloc-lhs -Wrealloc-lhs-all -fallow-argument-mismatch -fcheck-array-temporaries -Warray-temporaries -fcheck=array-temps
PP flags        : -DSIESTA__DEV_INFO -DSIESTA__FLOOK -DSIESTA__METIS -DSIESTA__FFTW -DTS_PVT_METIS -DSIESTA__MRRR -DSIESTA__SCALAPACK_RESET -DMPI -DFC_HAVE_FLUSH -DFC_HAVE_ABORT -DCDF -DGRID_DP -DMPI_TIMING -DTRANSIESTA_TIMING -DTBTRANS_TIMING -D1 -DNCDF_PARALLEL -DNCDF -DNCDF_4 -DSCALAPACK_DEBUG -D_DIAG_WORK -DSIESTA__DIAG_2STAGE -DSIESTA__ELPA
Libraries       : libncdf.a libfdict.a  -lzmumps -lmumps_common -lpord -lparmetis -lmetis -lesmumps -lscotch -lscotcherr -L/opt/gnu/11.2.0/elpa/2020.05.001/lib -Wl,-rpath=/opt/gnu/11.2.0/elpa/2020.05.001/lib -lelpa -L/opt/gnu/11.2.0/scalapack-debug/2.1.0/lib -Wl,-rpath=/opt/gnu/11.2.0/scalapack-debug/2.1.0/lib -lscalapack  -L/opt/gnu/11.2.0/openblas/0.3.18/lib -Wl,-rpath=/opt/gnu/11.2.0/openblas/0.3.18/lib -lopenblas -L/home/nicpa/codes/flook/obj -lflookall -ldl -l:libnetcdff.so  -m64 -fPIC -O3 -ftree-vectorize -fexpensive-optimizations -funroll-loops -fprefetch-loop-arrays -fgraphite -fipa-icf -fipa-pure-const -march=native -fschedule-fusion -fselective-scheduling -fstack-arrays -fmax-stack-var-size=10000 -fipa-sra -fipa-cp -fcheck=recursion,array-temps -fno-second-underscore -Wrealloc-lhs -Wrealloc-lhs-all -fallow-argument-mismatch -fcheck-array-temporaries -Warray-temporaries -fcheck=array-temps -L/opt/gnu/11.2.0/fftw/3.3.10/lib -Wl,-rpath=/opt/gnu/11.2.0/fftw/3.3.10/lib -lfftw3
Parallelisations: MPI
NetCDF support
NetCDF-4 support
NetCDF-4 MPI-IO support
METIS ordering support
Lua support

Runtime information:
* Directory : /home/nicpa/siesta/siesta/Obj/Tests/TranSiesta-TBTrans/ts_au/work/Elec
* Running on 6 nodes in parallel.
>> Start of run:  29-APR-2022   9:14:46

                           *********************** 
                           *  WELCOME TO SIESTA  * 
                           *********************** 

reinit: Reading from file ts_au_elec_111_abc.fdf

reinit: -----------------------------------------------------------------------
reinit: System Name: ts_au_elec_111_abc
reinit: -----------------------------------------------------------------------
reinit: System Label: ts_au_elec_111_abc
reinit: -----------------------------------------------------------------------

initatom: Reading input for the pseudopotentials and atomic orbitals ----------
Species number:   1 Atomic number:   79 Label: Au


 ---- Processing specs for species: Au
Ground state valence configuration:   6s01  5d10
Reading pseudopotential information in formatted form from Au.psf

---- Pseudopotential check for Au

Pseudopotential generated from a fully relativistic atomic calculation
There are spin-orbit semi-local pseudopotentials available

Pseudized shells:
6s( 1.00) rc: 2.32
6p( 0.00) rc: 2.32
5d(10.00) rc: 2.32
5f( 0.00) rc: 2.32
Valence configuration for ps generation: (assumed as above)
For Au, standard SIESTA heuristics set lmxkb to 3
 (one more than the basis l, including polarization orbitals).
Use PS.lmax or PS.KBprojectors blocks to override.

<basis_specs>
===============================================================================
Au                   Z=  79    Mass=  196.97        Charge= 0.17977+309
Lmxo=2 Lmxkb= 3    BasisType=split      Semic=F
L=0  Nsemic=0  Cnfigmx=6
          i=1  nzeta=1  polorb=1  (6s)  (to be polarized perturbatively)
            splnorm:   0.15000    
               vcte:    0.0000    
               rinn:    0.0000    
               qcoe:    0.0000    
               qyuk:    0.0000    
               qwid:   0.10000E-01
                rcs:    0.0000    
            lambdas:    1.0000    
L=1  Nsemic=0  Cnfigmx=6
          i=1  nzeta=0  polorb=0  (6p)  (perturbative polarization orbital) (from 6s)
L=2  Nsemic=0  Cnfigmx=5
          i=1  nzeta=1  polorb=0  (5d)
            splnorm:   0.15000    
               vcte:    0.0000    
               rinn:    0.0000    
               qcoe:    0.0000    
               qyuk:    0.0000    
               qwid:   0.10000E-01
                rcs:    0.0000    
            lambdas:    1.0000    
-------------------------------------------------------------------------------
L=0  Nkbl=1  erefs: 0.17977+309
L=1  Nkbl=1  erefs: 0.17977+309
L=2  Nkbl=1  erefs: 0.17977+309
L=3  Nkbl=1  erefs: 0.17977+309
===============================================================================
</basis_specs>

atom: Called for Au                    (Z =  79)

read_vps: Pseudopotential generation method:
read_vps: ATM3      Troullier-Martins                       
Valence charge in pseudo generation:   11.00000

xc_check: Exchange-correlation functional:
xc_check: Ceperley-Alder
V l=0 = -2*Zval/r beyond r=  3.7361
V l=1 = -2*Zval/r beyond r=  3.7361
V l=2 = -2*Zval/r beyond r=  3.7361
V l=3 = -2*Zval/r beyond r=  3.7361
All V_l potentials equal beyond r=  2.2946
This should be close to max(r_c) in ps generation
All pots = -2*Zval/r beyond r=  3.7361
Using large-core scheme (fit) for Vlocal

atom: Estimated core radius    3.73611

atom: Including non-local core corrections could be a good idea
Fit of Vlocal with continuous 2nd derivative
Fitting vlocal at       2.3822
Choosing vlocal chloc cutoff:943  4.077746
qtot up to nchloc:   10.99914104
atom: Maximum radius for chlocal:    4.07775
atom: Maximum radius for r*vlocal+2*Zval:    4.07775

KBgen: Kleinman-Bylander projectors: 
GHOST: No ghost state for L =  0
   l= 0   rc=  2.382235   el= -0.445645   Ekb=  4.511922   kbcos=  0.274440
GHOST: No ghost state for L =  1
   l= 1   rc=  2.382235   el= -0.065316   Ekb=  2.560647   kbcos=  0.223707
GHOST: No ghost state for L =  2
   l= 2   rc=  2.382235   el= -0.526293   Ekb= -5.024070   kbcos= -0.676934
GHOST: No ghost state for L =  3
   l= 3   rc=  2.382235   el=  0.003438   Ekb= -2.070042   kbcos= -0.013117

KBgen: Total number of Kleinman-Bylander projectors:  16
atom: -------------------------------------------------------------------------

atom: SANKEY-TYPE ORBITALS:

SPLIT: Orbitals with angular momentum L= 0

SPLIT: Basis orbitals for state 6s

SPLIT: PAO cut-off radius determined from an
SPLIT: energy shift=  0.005000 Ry

   izeta = 1
                 lambda =    1.000000
                     rc =    7.246712
                 energy =   -0.441368
                kinetic =    0.367640
    potential(screened) =   -0.809008
       potential(ionic) =   -8.408267

SPLIT: Orbitals with angular momentum L= 2

SPLIT: Basis orbitals for state 5d

SPLIT: PAO cut-off radius determined from an
SPLIT: energy shift=  0.005000 Ry

   izeta = 1
                 lambda =    1.000000
                     rc =    5.106662
                 energy =   -0.521343
                kinetic =    4.852314
    potential(screened) =   -5.373657
       potential(ionic) =  -16.114240

POLgen: Perturbative polarization orbital with L=  1

POLgen: Polarization orbital for state 6s

   izeta = 1
                     rc =    7.246712
                 energy =   -0.107868
                kinetic =    0.647525
    potential(screened) =   -0.755394
       potential(ionic) =   -7.869443
atom: Total number of Sankey-type orbitals:  9

atm_pop: Valence configuration (for local Pseudopot. screening):
 6s( 1.00)                                                            
 6p( 0.00)                                                            
 5d(10.00)                                                            
Vna: chval, zval:   11.00000  11.00000

Vna:  Cut-off radius for the neutral-atom potential:   7.246712

atom: _________________________________________________________________________

prinput: Basis input 
* WARNING: This information might be incomplete!!!
----------------------------------------------------------

PAO.BasisType split     

%block ChemicalSpeciesLabel
    1   79 Au                      # Species index, atomic number, species label
%endblock ChemicalSpeciesLabel

%block PAO.Basis                 # Define Basis set
# WARNING: This information might be incomplete!!!
Au                    2                    # Species label, number of l-shells
 n=6   0   1 P   1                   # n, l, Nzeta, Polarization, NzetaPol
   7.247   
   1.000   
 n=5   2   1                         # n, l, Nzeta 
   5.107   
   1.000   
%endblock PAO.Basis

prinput: ----------------------------------------------------------------------

Dumping basis to NetCDF file Au.ion.nc
coor:   Atomic-coordinates input format  =     Cartesian coordinates
coor:                                          (in units of alat)

siesta: WARNING: XV file not found

siesta: Atomic coordinates (Bohr) and species
siesta:      0.00000   0.00000   0.00000  1        1
siesta:      2.76194   1.59461   4.51023  1        2
siesta:      2.76194  -1.59461   9.02046  1        3

siesta: System type = bulk      

initatomlists: Number of atoms, orbitals, and projectors:      3    27    48

coxmol: Writing XMOL coordinates into file ts_au_elec_111_abc.xyz                                                                                                                                                                                                              

siesta: ******************** Simulation parameters ****************************
siesta:
siesta: The following are some of the parameters of the simulation.
siesta: A complete list of the parameters used, including default values,
siesta: can be found in file out.fdf
siesta:
redata: Spin configuration                          = none
redata: Number of spin components                   = 1
redata: Time-Reversal Symmetry                      = T
redata: Spin spiral                                 = F
redata: Long output                                 =   F
redata: Number of Atomic Species                    =        1
redata: Charge density info will appear in .RHO file
redata: Write Mulliken Pop.                         = Atomic and Orbital charges
redata: Matel table size (NRTAB)                    =     1024
redata: Mesh Cutoff                                 =   350.0000 Ry
redata: Net charge of the system                    =     0.0000 |e|
redata: Min. number of SCF Iter                     =        0
redata: Max. number of SCF Iter                     =      300
redata: SCF convergence failure will abort job
redata: SCF mix quantity                            = Hamiltonian
redata: Mix DM or H after convergence               =   F
redata: Recompute H after scf cycle                 =   F
redata: Mix DM in first SCF step                    =   T
redata: Write Pulay info on disk                    =   F
redata: New DM Occupancy tolerance                  = 0.000000000001
redata: No kicks to SCF
redata: DM Mixing Weight for Kicks                  =     0.5000
redata: Require Harris convergence for SCF          =   F
redata: Harris energy tolerance for SCF             =     0.000100 eV
redata: Require DM convergence for SCF              =   T
redata: DM tolerance for SCF                        =     0.000100
redata: Require EDM convergence for SCF             =   F
redata: EDM tolerance for SCF                       =     0.001000 eV
redata: Require H convergence for SCF               =   T
redata: Hamiltonian tolerance for SCF               =     0.001000 eV
redata: Require (free) Energy convergence for SCF   =   F
redata: (free) Energy tolerance for SCF             =     0.000100 eV
redata: Using Saved Data (generic)                  =   F
redata: Use continuation files for DM               =   T
redata: Neglect nonoverlap interactions             =   F
redata: Method of Calculation                       = Diagonalization
redata: Electronic Temperature                      =    99.9993 K
redata: Fix the spin of the system                  =   F
redata: Max. number of TDED Iter                    =        1
redata: Number of TDED substeps                     =        3
redata: Dynamics option                             = Single-point calculation
mix.SCF: Pulay mixing                            = Pulay
mix.SCF:    Variant                              = stable
mix.SCF:    History steps                        = 5
mix.SCF:    Linear mixing weight                 =     0.030000
mix.SCF:    Mixing weight                        =     0.030000
mix.SCF:    SVD condition                        = 0.1000E-07
redata: Save all siesta data in one NC              =   F
redata: ***********************************************************************

%block SCF.Mixers
  Pulay
%endblock SCF.Mixers

%block SCF.Mixer.Pulay
  # Mixing method
  method pulay
  variant stable

  # Mixing options
  weight 0.0300
  weight.linear 0.0300
  history 5
%endblock SCF.Mixer.Pulay

DM_history_depth set to one: no extrapolation allowed by default for geometry relaxation
Size of DM history Fstack: 1
Total number of electrons:    33.000000
Total ionic charge:    33.000000

* ProcessorY, Blocksize:    2   4


* Orbital distribution balance (max,min):     7     4

k-point displ. along   1 input, could be:     0.00    0.50
k-point displ. along   2 input, could be:     0.00    0.50
k-point displ. along   3 input, could be:     0.00    0.50
 Kpoints in:         1984 . Kpoints trimmed:         1960

siesta: k-grid: Number of k-points =      1960
siesta: k-points from Monkhorst-Pack grid
siesta: k-cutoff (effective) =    11.692 Ang
siesta: k-point supercell and displacements
siesta: k-grid:    8   0   0      0.000
siesta: k-grid:    0   8   0      0.000
siesta: k-grid:    0   0  60      0.000

diag: Algorithm                                     = Expert
diag: Parallel over k                               =   F
diag: Use parallel 2D distribution                  =   T
diag: Parallel block-size                           = 4
diag: Parallel distribution                         =     2 x     3
diag: Used triangular part                          = Lower
diag: Absolute tolerance                            =  0.100E-15
diag: Orthogonalization factor                      =  0.100E-05
diag: Memory factor                                 =  1.0000

superc: Internal auxiliary supercell:     9 x     9 x     5  =     405
superc: Number of atoms, orbitals, and projectors:   1215  10935  19440


ts: **************************************************************
ts: Save H and S matrices                           =    T
ts: Save DM and EDM matrices                        =    T
ts: Only save the overlap matrix S                  =    F
ts: **************************************************************

************************ Begin: TS CHECKS AND WARNINGS ************************
************************ End: TS CHECKS AND WARNINGS **************************


                     ====================================
                        Single-point calculation
                     ====================================

superc: Internal auxiliary supercell:     9 x     9 x     5  =     405
superc: Number of atoms, orbitals, and projectors:   1215  10935  19440

outcell: Unit cell vectors (Ang):
        2.923110    0.000000    0.000000
        1.461555    2.531488    0.000000
        0.000000    0.000000    7.160128

outcell: Cell vector modules (Ang)   :    2.923110    2.923110    7.160128
outcell: Cell angles (23,13,12) (deg):     90.0000     90.0000     60.0000
outcell: Cell volume (Ang**3)        :     52.9836
<dSpData1D:S at geom step 0
  <sparsity:sparsity for geom step 0
    nrows_g=27 nrows=7 sparsity=12.5226 nnzs=9129, refcount: 7>
  <dData1D:(new from dSpData1D) n=9129, refcount: 1>
refcount: 1>
new_DM -- step:     1
Initializing Density Matrix...

Attempting to read DM from file... Failed...
DM filled with atomic data:
<dSpData2D:DM initialized from atoms
  <sparsity:sparsity for geom step 0
    nrows_g=27 nrows=7 sparsity=12.5226 nnzs=9129, refcount: 8>
  <dData2D:DM n=9129 m=1, refcount: 1>
refcount: 1>
No. of atoms with KB's overlaping orbs in proc 0. Max # of overlaps:      70     237

InitMesh: MESH = 30 x 30 x 90 = 81000
InitMesh: (bp) =    15 x    15 x    45 =       10125
InitMesh: Mesh cutoff (required, used) =   350.000   388.144 Ry
New grid distribution [1]: sub = 2
           1       1:   15    1:    8    1:   15
           2       1:   15    1:    8   16:   30
           3       1:   15    1:    8   31:   45
           4       1:   15    9:   15    1:   15
           5       1:   15    9:   15   16:   30
           6       1:   15    9:   15   31:   45
ExtMesh (bp) on 0 =   107 x   100 x   115 =     1230500
New grid distribution [2]: sub = 2
           1       1:   15    1:   15    1:    8
           2       1:   15    1:    7    9:   23
           3       1:   15    1:    8   31:   45
           4       1:   15    1:   15   24:   30
           5       1:   15    8:   15    9:   23
           6       1:   15    9:   15   31:   45
New grid distribution [3]: sub = 2
           1       1:   15    1:   15    1:    8
           2       1:   15    1:    8    9:   23
           3       1:   15    9:   15   32:   45
           4       1:   15    9:   15    9:   23
           5       1:   15    1:   15   24:   31
           6       1:   15    1:    8   32:   45
Setting up quadratic distribution...
ExtMesh (bp) on 0 =   107 x   107 x   108 =     1236492
PhiOnMesh: Number of (b)points on node 0 =                 1800
PhiOnMesh: nlist on node 0 =               146943
cdiag-debug: jobz=N, algo= 5, Node=    1, work=        5535, rwork=         540, iwork=         162
cdiag-debug: jobz=N, algo= 5, Node=    2, work=        5535, rwork=         540, iwork=         162
cdiag-debug: jobz=N, algo= 5, Node=    3, work=        5535, rwork=         540, iwork=         162
cdiag-debug: jobz=N, algo= 5, Node=    4, work=        5535, rwork=         540, iwork=         162
cdiag-debug: jobz=N, algo= 5, Node=    5, work=        5535, rwork=         540, iwork=         162
cdiag-debug: jobz=N, algo= 5, Node=    0, work=        5535, rwork=         540, iwork=         162

stepf: Fermi-Dirac step function
cdiag-debug: jobz=V, algo= 5, Node=    5, work=        5535, rwork=         621, iwork=         162
cdiag-debug: jobz=V, algo= 5, Node=    1, work=        5535, rwork=         621, iwork=         162
cdiag-debug: jobz=V, algo= 5, Node=    2, work=        5535, rwork=         621, iwork=         162
cdiag-debug: jobz=V, algo= 5, Node=    3, work=        5535, rwork=         621, iwork=         162
cdiag-debug: jobz=V, algo= 5, Node=    4, work=        5535, rwork=         621, iwork=         162
cdiag-debug: jobz=V, algo= 5, Node=    0, work=        5535, rwork=         621, iwork=         162

siesta: Program's energy decomposition (eV):
siesta: Ebs     =      -264.770459
siesta: Eions   =      3513.674752
siesta: Ena     =       174.746452
siesta: Ekin    =      1869.332505
siesta: Enl     =      -859.638177
siesta: Eso     =         0.000000
siesta: Edftu   =         0.000000
siesta: DEna    =        34.134721
siesta: DUscf   =         2.421419
siesta: DUext   =         0.000000
siesta: Ex      =      -370.115522
siesta: Ec      =       -50.656714
siesta: Exc     =      -420.772237
siesta: eta*DQ  =         0.000000
siesta: Emadel  =         0.000000
siesta: Emeta   =         0.000000
siesta: Emolmec =         0.000000
siesta: Ekinion =         0.000000
siesta: Eharris =     -2710.535800
siesta: Etot    =     -2713.450068
siesta: FreeEng =     -2713.450510

        iscf     Eharris(eV)        E_KS(eV)     FreeEng(eV)     dDmax    Ef(eV) dHmax(eV)
   scf:    1    -2710.535800    -2713.450068    -2713.450510  0.220182 -2.474758  1.770048
timer: Routine,Calls,Time,% = IterSCF        1       5.643  85.41
   scf:    2    -2713.552036    -2713.501238    -2713.501656  0.003041 -2.518475  1.692742
   scf:    3    -2714.399714    -2714.031321    -2714.031639  0.058908 -3.404184  0.023977
   scf:    4    -2714.031048    -2714.031223    -2714.031544  0.001172 -3.422840  0.021489
   scf:    5    -2714.031447    -2714.031354    -2714.031674  0.001288 -3.418121  0.001856
   scf:    6    -2714.031353    -2714.031353    -2714.031673  0.000080 -3.417064  0.002724
   scf:    7    -2714.031356    -2714.031355    -2714.031675  0.000361 -3.417838  0.000195
   scf:    8    -2714.031355    -2714.031355    -2714.031675  0.000022 -3.417787  0.000003

SCF Convergence by DM+H criterion
max |DM_out - DM_in|         :     0.0000218802
max |H_out - H_in|      (eV) :     0.0000026498
SCF cycle converged after 8 iterations

Using DM_out to compute the final energy and forces
No. of atoms with KB's overlaping orbs in proc 0. Max # of overlaps:      70     237

siesta: E_KS(eV) =            -2714.0314

siesta: E_KS - E_eggbox =     -2714.0314

siesta: Atomic forces (eV/Ang):
----------------------------------------
   Tot    0.000000    0.000000   -0.000000
----------------------------------------
   Max    0.000000
   Res    0.000000    sqrt( Sum f_i^2 / 3N )
----------------------------------------
   Max    0.000000    constrained

Stress tensor Voigt[x,y,z,yz,xz,xy] (kbar):       26.22       26.22       52.72        0.00        0.00       -0.00
(Free)E + p*V (eV/cell)    -2715.1910
Target enthalpy (eV/cell)    -2714.0317

mulliken: Atomic and Orbital Populations:

Species: Au                  
Atom  Qatom  Qorb
               6s      5dxy    5dyz    5dz2    5dxz    5dx2-y2 6Ppy    6Ppz    
               6Ppx    
   1 11.000   1.003   1.907   1.919   1.892   1.919   1.907   0.152   0.149
              0.152
   2 11.000   1.003   1.907   1.919   1.892   1.919   1.907   0.152   0.149
              0.152
   3 11.000   1.003   1.907   1.919   1.892   1.919   1.907   0.152   0.149
              0.152

mulliken: Qtot =       33.000

coxmol: Writing XMOL coordinates into file ts_au_elec_111_abc.xyz                                                                                                                                                                                                              

siesta: Eigenvalues (eV):
  ik is       eps
   1  1  -10.3442  -10.1041   -9.7980   -9.6412   -8.4718   -8.0683   -8.0301   -7.5632   -7.5178   -7.3364
          -5.9431   -5.8387   -5.7776   -5.6314   -5.4227   -5.2896   -3.2656   -2.1918    1.7643    5.7884
    6.0176    9.1515   10.3577   10.7323   16.9194   16.9929   19.1264
   2  1  -10.4421   -9.6443   -9.4026   -9.2543   -8.6033   -8.4985   -8.4000   -7.8706   -7.4948   -7.3823
          -6.8156   -6.7777   -5.9797   -5.9186   -5.7107   -5.3015   -3.2719   -2.8729    4.6503    7.0102
    8.7175    9.1172    9.6245   11.6876   14.3273   15.2426   21.5349
   3  1  -10.4421   -9.6443   -9.4026   -9.2543   -8.6033   -8.4985   -8.4000   -7.8706   -7.4948   -7.3823
          -6.8156   -6.7777   -5.9797   -5.9186   -5.7107   -5.3015   -3.2719   -2.8729    4.6503    7.0102
    8.7175    9.1172    9.6245   11.6876   14.3273   15.2426   21.5349
   4  1  -10.3442  -10.1041   -9.7980   -9.6412   -8.4718   -8.0683   -8.0301   -7.5632   -7.5178   -7.3364
          -5.9431   -5.8387   -5.7776   -5.6314   -5.4227   -5.2896   -3.2656   -2.1918    1.7643    5.7884
    6.0176    9.1515   10.3577   10.7323   16.9194   16.9929   19.1264
   5  1  -10.0366   -9.8175   -9.7331   -9.5829   -8.6374   -8.3477   -7.8741   -7.5600   -7.3270   -7.2262
          -6.1755   -5.9059   -5.7718   -5.5437   -5.2150   -3.6368   -1.3391   -0.3893   -0.3619    3.4785
    3.7286    7.5501    9.9468   11.8001   12.6362   14.3515   17.8179
   6  1   -9.7114   -9.3425   -9.3425   -9.0921   -8.5501   -8.5501   -7.9262   -7.9262   -7.1519   -6.9297
          -6.9297   -6.2885   -5.8810   -5.8810   -5.5396   -1.5040   -1.5040    0.9098    1.8104    2.8806
    2.8806    5.0202    7.3606    7.3606   12.2672   15.2102   15.2102
   7  1   -9.7114   -9.3425   -9.3425   -9.0921   -8.5501   -8.5501   -7.9262   -7.9262   -7.1519   -6.9297
          -6.9297   -6.2885   -5.8810   -5.8810   -5.5396   -1.5040   -1.5040    0.9098    1.8104    2.8806
    2.8806    5.0202    7.3606    7.3606   12.2672   15.2102   15.2102
   8  1  -10.0366   -9.8175   -9.7331   -9.5829   -8.6374   -8.3477   -7.8741   -7.5600   -7.3270   -7.2262
          -6.1755   -5.9059   -5.7718   -5.5437   -5.2150   -3.6368   -1.3391   -0.3893   -0.3619    3.4785
    3.7286    7.5501    9.9468   11.8001   12.6362   14.3515   17.8179
   9  1  -10.4421   -9.6443   -9.4026   -9.2543   -8.6033   -8.4985   -8.4000   -7.8706   -7.4948   -7.3823
          -6.8156   -6.7777   -5.9797   -5.9186   -5.7107   -5.3015   -3.2719   -2.8729    4.6503    7.0102
    8.7175    9.1172    9.6245   11.6876   14.3273   15.2426   21.5349
  10  1  -11.3393   -9.8473   -9.3999   -9.1518   -8.5192   -8.4031   -8.1605   -7.6960   -7.6131   -7.6039
          -7.1455   -6.7286   -6.6912   -6.5789   -6.2394   -5.4286   -4.4465   -3.7493    6.8185    7.3189
    8.2585   12.9229   13.2373   13.5459   19.0509   19.4776   22.0254
  11  1  -11.6569   -9.6552   -9.6552   -8.6753   -8.6753   -8.4042   -8.2683   -8.2683   -7.6857   -7.6115
          -6.9535   -6.9325   -6.9325   -6.2420   -6.1600   -6.1600   -4.2690   -4.2690    6.8685    6.8685
   11.4298   11.4298   16.5260   17.6078   17.6078   17.6169   23.3223
  12  1  -11.3393   -9.8473   -9.3999   -9.1518   -8.5192   -8.4031   -8.1605   -7.6960   -7.6131   -7.6039
          -7.1455   -6.7286   -6.6912   -6.5789   -6.2394   -5.4286   -4.4465   -3.7493    6.8185    7.3189
    8.2585   12.9229   13.2373   13.5459   19.0509   19.4776   22.0254
  13  1  -10.4421   -9.6443   -9.4026   -9.2543   -8.6033   -8.4985   -8.4000   -7.8706   -7.4948   -7.3823
          -6.8156   -6.7777   -5.9797   -5.9186   -5.7107   -5.3015   -3.2719   -2.8729    4.6503    7.0102
    8.7175    9.1172    9.6245   11.6876   14.3273   15.2426   21.5349
  14  1   -9.5527   -9.5527   -9.4085   -8.9486   -8.9486   -8.5131   -8.1633   -7.6781   -7.6781   -7.1447
          -6.5857   -6.5394   -6.5394   -5.4136   -5.4136   -3.7372   -0.9094   -0.9094    2.4322    2.4322
    7.3250    8.2464    8.2464    8.2591   11.7485   11.7485   19.0445
  15  1   -9.7114   -9.3425   -9.3425   -9.0921   -8.5501   -8.5501   -7.9262   -7.9262   -7.1519   -6.9297
          -6.9297   -6.2885   -5.8810   -5.8810   -5.5396   -1.5040   -1.5040    0.9098    1.8104    2.8806
    2.8806    5.0202    7.3606    7.3606   12.2672   15.2102   15.2102
  16  1   -9.5527   -9.5527   -9.4085   -8.9486   -8.9486   -8.5131   -8.1633   -7.6781   -7.6781   -7.1447
          -6.5857   -6.5394   -6.5394   -5.4136   -5.4136   -3.7372   -0.9094   -0.9094    2.4322    2.4322
    7.3250    8.2464    8.2464    8.2591   11.7485   11.7485   19.0445
  17  1  -10.4421   -9.6443   -9.4026   -9.2543   -8.6033   -8.4985   -8.4000   -7.8706   -7.4948   -7.3823
          -6.8156   -6.7777   -5.9797   -5.9186   -5.7107   -5.3015   -3.2719   -2.8729    4.6503    7.0102
    8.7175    9.1172    9.6245   11.6876   14.3273   15.2426   21.5349
  18  1  -11.6569   -9.6552   -9.6552   -8.6753   -8.6753   -8.4042   -8.2683   -8.2683   -7.6857   -7.6115
          -6.9535   -6.9325   -6.9325   -6.2420   -6.1600   -6.1600   -4.2690   -4.2690    6.8685    6.8685
   11.4298   11.4298   16.5260   17.6078   17.6078   17.6169   23.3223
  19  1  -12.4408  -10.3400  -10.2976   -8.1760   -8.1000   -8.0718   -8.0203   -7.8717   -7.8563   -7.7479
          -7.6237   -7.5520   -6.7163   -6.5372   -6.4070   -5.6430   -5.4330   -4.9324    6.0095    6.1134
   15.1596   16.9905   19.1345   20.2601   20.7884   22.2528   23.2460
  20  1  -12.4408  -10.3400  -10.2976   -8.1760   -8.1000   -8.0718   -8.0203   -7.8717   -7.8563   -7.7479
          -7.6237   -7.5520   -6.7163   -6.5372   -6.4070   -5.6430   -5.4330   -4.9324    6.0095    6.1134
   15.1596   16.9905   19.1345   20.2601   20.7884   22.2528   23.2460
  21  1  -11.6569   -9.6552   -9.6552   -8.6753   -8.6753   -8.4042   -8.2683   -8.2683   -7.6857   -7.6115
          -6.9535   -6.9325   -6.9325   -6.2420   -6.1600   -6.1600   -4.2690   -4.2690    6.8685    6.8685
   11.4298   11.4298   16.5260   17.6078   17.6078   17.6169   23.3223
  22  1  -10.4421   -9.6443   -9.4026   -9.2543   -8.6033   -8.4985   -8.4000   -7.8706   -7.4948   -7.3823
          -6.8156   -6.7777   -5.9797   -5.9186   -5.7107   -5.3015   -3.2719   -2.8729    4.6503    7.0102
    8.7175    9.1172    9.6245   11.6876   14.3273   15.2426   21.5349
  23  1  -10.0366   -9.8175   -9.7331   -9.5829   -8.6374   -8.3477   -7.8741   -7.5600   -7.3270   -7.2262
          -6.1755   -5.9059   -5.7718   -5.5437   -5.2150   -3.6368   -1.3391   -0.3893   -0.3619    3.4785
    3.7286    7.5501    9.9468   11.8001   12.6362   14.3515   17.8179
  24  1  -10.0366   -9.8175   -9.7331   -9.5829   -8.6374   -8.3477   -7.8741   -7.5600   -7.3270   -7.2262
          -6.1755   -5.9059   -5.7718   -5.5437   -5.2150   -3.6368   -1.3391   -0.3893   -0.3619    3.4785
    3.7286    7.5501    9.9468   11.8001   12.6362   14.3515   17.8179
  25  1  -10.3442  -10.1041   -9.7980   -9.6412   -8.4718   -8.0683   -8.0301   -7.5632   -7.5178   -7.3364
          -5.9431   -5.8387   -5.7776   -5.6314   -5.4227   -5.2896   -3.2656   -2.1918    1.7643    5.7884
    6.0176    9.1515   10.3577   10.7323   16.9194   16.9929   19.1264
  26  1  -11.3393   -9.8473   -9.3999   -9.1518   -8.5192   -8.4031   -8.1605   -7.6960   -7.6131   -7.6039
          -7.1455   -6.7286   -6.6912   -6.5789   -6.2394   -5.4286   -4.4465   -3.7493    6.8185    7.3189
    8.2585   12.9229   13.2373   13.5459   19.0509   19.4776   22.0254
  27  1  -12.4408  -10.3400  -10.2976   -8.1760   -8.1000   -8.0718   -8.0203   -7.8717   -7.8563   -7.7479
          -7.6237   -7.5520   -6.7163   -6.5372   -6.4070   -5.6430   -5.4330   -4.9324    6.0095    6.1134
   15.1596   16.9905   19.1345   20.2601   20.7884   22.2528   23.2460
  28  1  -12.8561  -10.7248  -10.7248   -8.0294   -8.0196   -8.0196   -7.8734   -7.8734   -7.8734   -7.8734
          -7.1819   -7.1819   -6.5696   -6.5696   -5.9856   -5.9856   -5.9856   -5.9856    5.6455    5.6455
   20.1449   20.1449   20.1449   20.1449   23.5243   23.5350   23.5350
  29  1  -10.2917   -9.9997   -9.9859   -9.9859   -8.3885   -8.3885   -7.5151   -7.5151   -7.3525   -7.3525
          -5.4578   -5.3666   -5.3666   -5.1066   -5.0998   -2.6406   -2.6406   -1.8348    1.0022    1.0022
    2.6896    9.2430    9.2459   14.8429   14.8429   16.0081   16.0081
  30  1  -10.0366   -9.8175   -9.7331   -9.5829   -8.6374   -8.3477   -7.8741   -7.5600   -7.3270   -7.2262
          -6.1755   -5.9059   -5.7718   -5.5437   -5.2150   -3.6368   -1.3391   -0.3893   -0.3619    3.4785
    3.7286    7.5501    9.9468   11.8001   12.6362   14.3515   17.8179
  31  1   -9.5527   -9.5527   -9.4085   -8.9486   -8.9486   -8.5131   -8.1633   -7.6781   -7.6781   -7.1447
          -6.5857   -6.5394   -6.5394   -5.4136   -5.4136   -3.7372   -0.9094   -0.9094    2.4322    2.4322
    7.3250    8.2464    8.2464    8.2591   11.7485   11.7485   19.0445
  32  1  -10.0366   -9.8175   -9.7331   -9.5829   -8.6374   -8.3477   -7.8741   -7.5600   -7.3270   -7.2262
          -6.1755   -5.9059   -5.7718   -5.5437   -5.2150   -3.6368   -1.3391   -0.3893   -0.3619    3.4785
    3.7286    7.5501    9.9468   11.8001   12.6362   14.3515   17.8179
  33  1  -10.0366   -9.8175   -9.7331   -9.5829   -8.6374   -8.3477   -7.8741   -7.5600   -7.3270   -7.2262
          -6.1755   -5.9059   -5.7718   -5.5437   -5.2150   -3.6368   -1.3391   -0.3893   -0.3619    3.4785
    3.7286    7.5501    9.9468   11.8001   12.6362   14.3515   17.8179
  34  1   -9.5527   -9.5527   -9.4085   -8.9486   -8.9486   -8.5131   -8.1633   -7.6781   -7.6781   -7.1447
          -6.5857   -6.5394   -6.5394   -5.4136   -5.4136   -3.7372   -0.9094   -0.9094    2.4322    2.4322
    7.3250    8.2464    8.2464    8.2591   11.7485   11.7485   19.0445
  35  1  -10.0366   -9.8175   -9.7331   -9.5829   -8.6374   -8.3477   -7.8741   -7.5600   -7.3270   -7.2262
          -6.1755   -5.9059   -5.7718   -5.5437   -5.2150   -3.6368   -1.3391   -0.3893   -0.3619    3.4785
    3.7286    7.5501    9.9468   11.8001   12.6362   14.3515   17.8179
  36  1  -10.2917   -9.9997   -9.9859   -9.9859   -8.3885   -8.3885   -7.5151   -7.5151   -7.3525   -7.3525
          -5.4578   -5.3666   -5.3666   -5.1066   -5.0998   -2.6406   -2.6406   -1.8348    1.0022    1.0022
    2.6896    9.2430    9.2459   14.8429   14.8429   16.0081   16.0081
  37  1  -10.0366   -9.8175   -9.7331   -9.5829   -8.6374   -8.3477   -7.8741   -7.5600   -7.3270   -7.2262
          -6.1755   -5.9059   -5.7718   -5.5437   -5.2150   -3.6368   -1.3391   -0.3893   -0.3619    3.4785
    3.7286    7.5501    9.9468   11.8001   12.6362   14.3515   17.8179
  38  1   -9.5527   -9.5527   -9.4085   -8.9486   -8.9486   -8.5131   -8.1633   -7.6781   -7.6781   -7.1447
          -6.5857   -6.5394   -6.5394   -5.4136   -5.4136   -3.7372   -0.9094   -0.9094    2.4322    2.4322
    7.3250    8.2464    8.2464    8.2591   11.7485   11.7485   19.0445
  39  1  -10.0366   -9.8175   -9.7331   -9.5829   -8.6374   -8.3477   -7.8741   -7.5600   -7.3270   -7.2262
          -6.1755   -5.9059   -5.7718   -5.5437   -5.2150   -3.6368   -1.3391   -0.3893   -0.3619    3.4785
    3.7286    7.5501    9.9468   11.8001   12.6362   14.3515   17.8179
  40  1  -10.2917   -9.9997   -9.9859   -9.9859   -8.3885   -8.3885   -7.5151   -7.5151   -7.3525   -7.3525
          -5.4578   -5.3666   -5.3666   -5.1066   -5.0998   -2.6406   -2.6406   -1.8348    1.0022    1.0022
    2.6896    9.2430    9.2459   14.8429   14.8429   16.0081   16.0081
  41  1  -10.3196  -10.0963   -9.7921   -9.6757   -8.4568   -8.1332   -8.0374   -7.5327   -7.4804   -7.3699
          -5.9725   -5.8413   -5.7882   -5.6268   -5.4080   -5.2770   -3.1140   -2.2943    1.7591    5.5924
    6.1514    8.9906   10.3552   11.0237   16.8343   17.0810   18.9928
  42  1  -10.4296   -9.6291   -9.3959   -9.3006   -8.5821   -8.5268   -8.3861   -7.8810   -7.5069   -7.3530
          -6.8396   -6.7830   -5.9887   -5.9174   -5.6866   -5.2986   -3.1549   -2.9683    4.6489    6.8450
    8.5840    9.4109    9.7677   11.5535   14.1758   15.4107   21.4780
  43  1  -10.4540   -9.6601   -9.4074   -9.2081   -8.6248   -8.4704   -8.4132   -7.8606   -7.4831   -7.4100
          -6.7934   -6.7709   -5.9767   -5.9178   -5.7308   -5.3048   -3.3864   -2.7766    4.6552    7.1617
    8.8258    8.8681    9.4816   11.8243   14.4790   15.0741   21.5818
  44  1  -10.3684  -10.1115   -9.8025   -9.6084   -8.4857   -8.0384   -7.9855   -7.5927   -7.5542   -7.3023
          -5.9146   -5.8356   -5.7673   -5.6361   -5.4382   -5.3039   -3.4153   -2.0896    1.7728    5.8852
    5.9864    9.3096   10.3650   10.4426   16.7563   17.1502   19.2523
  45  1  -10.0413   -9.8488   -9.7333   -9.5466   -8.6574   -8.3354   -7.8122   -7.6007   -7.3589   -7.1936
          -6.1635   -5.9091   -5.7786   -5.5455   -5.2212   -3.6466   -1.4460   -0.3911   -0.2380    3.5915
    3.6015    7.5819   10.0403   11.5678   12.8076   14.1639   17.9681
  46  1   -9.7108   -9.3623   -9.3218   -9.0919   -8.5550   -8.5460   -7.9564   -7.8971   -7.1535   -6.9489
          -6.9103   -6.2894   -5.8827   -5.8774   -5.5385   -1.5046   -1.5013    0.9081    1.8099    2.7448
    3.0179    5.0262    7.1972    7.5255   12.2617   15.1010   15.3089
  47  1   -9.7108   -9.3623   -9.3218   -9.0919   -8.5550   -8.5460   -7.9564   -7.8971   -7.1535   -6.9489
          -6.9103   -6.2894   -5.8827   -5.8774   -5.5385   -1.5046   -1.5013    0.9081    1.8099    2.7448
    3.0179    5.0262    7.1972    7.5255   12.2617   15.1010   15.3089
  48  1  -10.0308   -9.7860   -9.7320   -9.6194   -8.6172   -8.3598   -7.9368   -7.5196   -7.2923   -7.2582
          -6.1901   -5.9023   -5.7688   -5.5410   -5.2075   -3.6270   -1.2303   -0.4983   -0.3722    3.3680
    3.8572    7.5231    9.8466   12.0317   12.4650   14.5376   17.6596
  49  1  -10.4296   -9.6291   -9.3959   -9.3006   -8.5821   -8.5268   -8.3861   -7.8810   -7.5069   -7.3530
          -6.8396   -6.7830   -5.9887   -5.9174   -5.6866   -5.2986   -3.1549   -2.9683    4.6489    6.8450
    8.5840    9.4109    9.7677   11.5535   14.1758   15.4107   21.4780
  50  1  -11.3333   -9.8359   -9.4302   -9.1308   -8.5297   -8.4301   -8.1463   -7.6905   -7.6130   -7.5953
          -7.1536   -6.7383   -6.7032   -6.6032   -6.2302   -5.4120   -4.3238   -3.8280    6.5237    7.4366
    8.4538   13.0679   13.2259   13.3794   19.2019   19.3367   21.9894
  51  1  -11.6562   -9.6733   -9.6399   -8.7108   -8.6377   -8.4047   -8.2857   -8.2500   -7.6855   -7.6110
          -6.9533   -6.9437   -6.9213   -6.2420   -6.2015   -6.1194   -4.3508   -4.1848    6.5693    7.1712
   11.4100   11.4535   16.5091   17.4538   17.6320   17.7617   23.3174
  52  1  -11.3441   -9.8597   -9.3739   -9.1717   -8.5059   -8.3761   -8.1734   -7.7014   -7.6299   -7.5942
          -7.1384   -6.7192   -6.6788   -6.5528   -6.2488   -5.4464   -4.5667   -3.6695    7.1168    7.1570
    8.1146   12.7779   13.2529   13.7125   18.8985   19.6168   22.0512
  53  1  -10.4540   -9.6601   -9.4074   -9.2081   -8.6248   -8.4704   -8.4132   -7.8606   -7.4831   -7.4100
          -6.7934   -6.7709   -5.9767   -5.9178   -5.7308   -5.3048   -3.3864   -2.7766    4.6552    7.1617
    8.8258    8.8681    9.4816   11.8243   14.4790   15.0741   21.5818
  54  1   -9.5709   -9.5339   -9.4089   -8.9533   -8.9431   -8.5129   -8.1642   -7.6923   -7.6650   -7.1440
          -6.5841   -6.5577   -6.5235   -5.4141   -5.4114   -3.7370   -1.0133   -0.8046    2.4318    2.4364
    7.3011    8.0600    8.2844    8.4343   11.5771   11.9159   19.0385
  55  1   -9.7108   -9.3623   -9.3218   -9.0919   -8.5550   -8.5460   -7.9564   -7.8971   -7.1535   -6.9489
          -6.9103   -6.2894   -5.8827   -5.8774   -5.5385   -1.5046   -1.5013    0.9081    1.8099    2.7448
    3.0179    5.0262    7.1972    7.5255   12.2617   15.1010   15.3089
  56  1   -9.5709   -9.5339   -9.4089   -8.9533   -8.9431   -8.5129   -8.1642   -7.6923   -7.6650   -7.1440
          -6.5841   -6.5577   -6.5235   -5.4141   -5.4114   -3.7370   -1.0133   -0.8046    2.4318    2.4364
    7.3011    8.0600    8.2844    8.4343   11.5771   11.9159   19.0385
  57  1  -10.4540   -9.6601   -9.4074   -9.2081   -8.6248   -8.4704   -8.4132   -7.8606   -7.4831   -7.4100
          -6.7934   -6.7709   -5.9767   -5.9178   -5.7308   -5.3048   -3.3864   -2.7766    4.6552    7.1617
    8.8258    8.8681    9.4816   11.8243   14.4790   15.0741   21.5818
  58  1  -11.6562   -9.6733   -9.6399   -8.7108   -8.6377   -8.4047   -8.2857   -8.2500   -7.6855   -7.6110
          -6.9533   -6.9437   -6.9213   -6.2420   -6.2015   -6.1194   -4.3508   -4.1848    6.5693    7.1712
   11.4100   11.4535   16.5091   17.4538   17.6320   17.7617   23.3174
  59  1  -12.4397  -10.3230  -10.3170   -8.1842   -8.1147   -8.0618   -7.9894   -7.8662   -7.8515   -7.7783
          -7.6128   -7.5616   -6.7289   -6.5271   -6.4451   -5.6201   -5.3489   -4.9919    5.7020    6.4254
   15.1883   16.9612   19.0089   20.3528   20.9062   22.1613   23.2422
  60  1  -12.4401  -10.3589  -10.2804   -8.1688   -8.1159   -8.0915   -8.0148   -7.8762   -7.8602   -7.7091
          -7.6344   -7.5426   -6.7038   -6.5476   -6.3688   -5.6666   -5.5147   -4.8714    5.8061    6.3217
   15.1340   17.0230   19.2598   20.1640   20.6700   22.3420   23.2368
  61  1  -11.6562   -9.6733   -9.6399   -8.7108   -8.6377   -8.4047   -8.2857   -8.2500   -7.6855   -7.6110
          -6.9533   -6.9437   -6.9213   -6.2420   -6.2015   -6.1194   -4.3508   -4.1848    6.5693    7.1712
   11.4100   11.4535   16.5091   17.4538   17.6320   17.7617   23.3174
  62  1  -10.4296   -9.6291   -9.3959   -9.3006   -8.5821   -8.5268   -8.3861   -7.8810   -7.5069   -7.3530
          -6.8396   -6.7830   -5.9887   -5.9174   -5.6866   -5.2986   -3.1549   -2.9683    4.6489    6.8450
    8.5840    9.4109    9.7677   11.5535   14.1758   15.4107   21.4780
  63  1  -10.0308   -9.7860   -9.7320   -9.6194   -8.6172   -8.3598   -7.9368   -7.5196   -7.2923   -7.2582
          -6.1901   -5.9023   -5.7688   -5.5410   -5.2075   -3.6270   -1.2303   -0.4983   -0.3722    3.3680
    3.8572    7.5231    9.8466   12.0317   12.4650   14.5376   17.6596
  64  1  -10.0413   -9.8488   -9.7333   -9.5466   -8.6574   -8.3354   -7.8122   -7.6007   -7.3589   -7.1936
          -6.1635   -5.9091   -5.7786   -5.5455   -5.2212   -3.6466   -1.4460   -0.3911   -0.2380    3.5915
    3.6015    7.5819   10.0403   11.5678   12.8076   14.1639   17.9681
  65  1  -10.3684  -10.1115   -9.8025   -9.6084   -8.4857   -8.0384   -7.9855   -7.5927   -7.5542   -7.3023
          -5.9146   -5.8356   -5.7673   -5.6361   -5.4382   -5.3039   -3.4153   -2.0896    1.7728    5.8852
    5.9864    9.3096   10.3650   10.4426   16.7563   17.1502   19.2523
  66  1  -11.3441   -9.8597   -9.3739   -9.1717   -8.5059   -8.3761   -8.1734   -7.7014   -7.6299   -7.5942
          -7.1384   -6.7192   -6.6788   -6.5528   -6.2488   -5.4464   -4.5667   -3.6695    7.1168    7.1570
    8.1146   12.7779   13.2529   13.7125   18.8985   19.6168   22.0512
  67  1  -12.4401  -10.3589  -10.2804   -8.1688   -8.1159   -8.0915   -8.0148   -7.8762   -7.8602   -7.7091
          -7.6344   -7.5426   -6.7038   -6.5476   -6.3688   -5.6666   -5.5147   -4.8714    5.8061    6.3217
   15.1340   17.0230   19.2598   20.1640   20.6700   22.3420   23.2368
  68  1  -12.8552  -10.7451  -10.7064   -8.0298   -8.0192   -8.0192   -7.8833   -7.8833   -7.8634   -7.8634
          -7.2733   -7.0863   -6.5698   -6.5698   -6.0164   -6.0164   -5.9550   -5.9550    5.3386    5.9575
   20.0780   20.0780   20.2130   20.2130   23.5158   23.5335   23.5335
  69  1  -12.4397  -10.3230  -10.3170   -8.1842   -8.1147   -8.0618   -7.9894   -7.8662   -7.8515   -7.7783
          -7.6128   -7.5616   -6.7289   -6.5271   -6.4451   -5.6201   -5.3489   -4.9919    5.7020    6.4254
   15.1883   16.9612   19.0089   20.3528   20.9062   22.1613   23.2422
  70  1  -11.3333   -9.8359   -9.4302   -9.1308   -8.5297   -8.4301   -8.1463   -7.6905   -7.6130   -7.5953
          -7.1536   -6.7383   -6.7032   -6.6032   -6.2302   -5.4120   -4.3238   -3.8280    6.5237    7.4366
    8.4538   13.0679   13.2259   13.3794   19.2019   19.3367   21.9894
  71  1  -10.3196  -10.0963   -9.7921   -9.6757   -8.4568   -8.1332   -8.0374   -7.5327   -7.4804   -7.3699
          -5.9725   -5.8413   -5.7882   -5.6268   -5.4080   -5.2770   -3.1140   -2.2943    1.7591    5.5924
    6.1514    8.9906   10.3552   11.0237   16.8343   17.0810   18.9928
  72  1  -10.2911  -10.0164   -9.9991   -9.9560   -8.4051   -8.3722   -7.5499   -7.4793   -7.4140   -7.2881
          -5.4585   -5.3691   -5.3640   -5.1093   -5.1003   -2.6694   -2.6135   -1.8356    0.8973    1.1098
    2.6946    9.2386    9.2484   14.6051   15.0776   15.8444   16.1704
  73  1  -10.0413   -9.8488   -9.7333   -9.5466   -8.6574   -8.3354   -7.8122   -7.6007   -7.3589   -7.1936
          -6.1635   -5.9091   -5.7786   -5.5455   -5.2212   -3.6466   -1.4460   -0.3911   -0.2380    3.5915
    3.6015    7.5819   10.0403   11.5678   12.8076   14.1639   17.9681
  74  1  -10.4540   -9.6601   -9.4074   -9.2081   -8.6248   -8.4704   -8.4132   -7.8606   -7.4831   -7.4100
          -6.7934   -6.7709   -5.9767   -5.9178   -5.7308   -5.3048   -3.3864   -2.7766    4.6552    7.1617
    8.8258    8.8681    9.4816   11.8243   14.4790   15.0741   21.5818
  75  1  -11.6562   -9.6733   -9.6399   -8.7108   -8.6377   -8.4047   -8.2857   -8.2500   -7.6855   -7.6110
          -6.9533   -6.9437   -6.9213   -6.2420   -6.2015   -6.1194   -4.3508   -4.1848    6.5693    7.1712
   11.4100   11.4535   16.5091   17.4538   17.6320   17.7617   23.3174
  76  1  -12.4397  -10.3230  -10.3170   -8.1842   -8.1147   -8.0618   -7.9894   -7.8662   -7.8515   -7.7783
          -7.6128   -7.5616   -6.7289   -6.5271   -6.4451   -5.6201   -5.3489   -4.9919    5.7020    6.4254
   15.1883   16.9612   19.0089   20.3528   20.9062   22.1613   23.2422
  77  1  -12.4401  -10.3589  -10.2804   -8.1688   -8.1159   -8.0915   -8.0148   -7.8762   -7.8602   -7.7091
          -7.6344   -7.5426   -6.7038   -6.5476   -6.3688   -5.6666   -5.5147   -4.8714    5.8061    6.3217
   15.1340   17.0230   19.2598   20.1640   20.6700   22.3420   23.2368
  78  1  -11.6562   -9.6733   -9.6399   -8.7108   -8.6377   -8.4047   -8.2857   -8.2500   -7.6855   -7.6110
          -6.9533   -6.9437   -6.9213   -6.2420   -6.2015   -6.1194   -4.3508   -4.1848    6.5693    7.1712
   11.4100   11.4535   16.5091   17.4538   17.6320   17.7617   23.3174
  79  1  -10.4296   -9.6291   -9.3959   -9.3006   -8.5821   -8.5268   -8.3861   -7.8810   -7.5069   -7.3530
          -6.8396   -6.7830   -5.9887   -5.9174   -5.6866   -5.2986   -3.1549   -2.9683    4.6489    6.8450
    8.5840    9.4109    9.7677   11.5535   14.1758   15.4107   21.4780
  80  1  -10.0308   -9.7860   -9.7320   -9.6194   -8.6172   -8.3598   -7.9368   -7.5196   -7.2923   -7.2582
          -6.1901   -5.9023   -5.7688   -5.5410   -5.2075   -3.6270   -1.2303   -0.4983   -0.3722    3.3680
    3.8572    7.5231    9.8466   12.0317   12.4650   14.5376   17.6596
  81  1   -9.7108   -9.3623   -9.3218   -9.0919   -8.5550   -8.5460   -7.9564   -7.8971   -7.1535   -6.9489
          -6.9103   -6.2894   -5.8827   -5.8774   -5.5385   -1.5046   -1.5013    0.9081    1.8099    2.7448
    3.0179    5.0262    7.1972    7.5255   12.2617   15.1010   15.3089
  82  1   -9.5709   -9.5339   -9.4089   -8.9533   -8.9431   -8.5129   -8.1642   -7.6923   -7.6650   -7.1440
          -6.5841   -6.5577   -6.5235   -5.4141   -5.4114   -3.7370   -1.0133   -0.8046    2.4318    2.4364
    7.3011    8.0600    8.2844    8.4343   11.5771   11.9159   19.0385
  83  1  -10.4296   -9.6291   -9.3959   -9.3006   -8.5821   -8.5268   -8.3861   -7.8810   -7.5069   -7.3530
          -6.8396   -6.7830   -5.9887   -5.9174   -5.6866   -5.2986   -3.1549   -2.9683    4.6489    6.8450
    8.5840    9.4109    9.7677   11.5535   14.1758   15.4107   21.4780
  84  1  -11.3333   -9.8359   -9.4302   -9.1308   -8.5297   -8.4301   -8.1463   -7.6905   -7.6130   -7.5953
          -7.1536   -6.7383   -6.7032   -6.6032   -6.2302   -5.4120   -4.3238   -3.8280    6.5237    7.4366
    8.4538   13.0679   13.2259   13.3794   19.2019   19.3367   21.9894
  85  1  -11.6562   -9.6733   -9.6399   -8.7108   -8.6377   -8.4047   -8.2857   -8.2500   -7.6855   -7.6110
          -6.9533   -6.9437   -6.9213   -6.2420   -6.2015   -6.1194   -4.3508   -4.1848    6.5693    7.1712
   11.4100   11.4535   16.5091   17.4538   17.6320   17.7617   23.3174
  86  1  -11.3441   -9.8597   -9.3739   -9.1717   -8.5059   -8.3761   -8.1734   -7.7014   -7.6299   -7.5942
          -7.1384   -6.7192   -6.6788   -6.5528   -6.2488   -5.4464   -4.5667   -3.6695    7.1168    7.1570
    8.1146   12.7779   13.2529   13.7125   18.8985   19.6168   22.0512
  87  1  -10.4540   -9.6601   -9.4074   -9.2081   -8.6248   -8.4704   -8.4132   -7.8606   -7.4831   -7.4100
          -6.7934   -6.7709   -5.9767   -5.9178   -5.7308   -5.3048   -3.3864   -2.7766    4.6552    7.1617
    8.8258    8.8681    9.4816   11.8243   14.4790   15.0741   21.5818
  88  1   -9.5709   -9.5339   -9.4089   -8.9533   -8.9431   -8.5129   -8.1642   -7.6923   -7.6650   -7.1440
          -6.5841   -6.5577   -6.5235   -5.4141   -5.4114   -3.7370   -1.0133   -0.8046    2.4318    2.4364
    7.3011    8.0600    8.2844    8.4343   11.5771   11.9159   19.0385
  89  1   -9.7108   -9.3623   -9.3218   -9.0919   -8.5550   -8.5460   -7.9564   -7.8971   -7.1535   -6.9489
          -6.9103   -6.2894   -5.8827   -5.8774   -5.5385   -1.5046   -1.5013    0.9081    1.8099    2.7448
    3.0179    5.0262    7.1972    7.5255   12.2617   15.1010   15.3089
  90  1   -9.7108   -9.3623   -9.3218   -9.0919   -8.5550   -8.5460   -7.9564   -7.8971   -7.1535   -6.9489
          -6.9103   -6.2894   -5.8827   -5.8774   -5.5385   -1.5046   -1.5013    0.9081    1.8099    2.7448
    3.0179    5.0262    7.1972    7.5255   12.2617   15.1010   15.3089
  91  1  -10.0308   -9.7860   -9.7320   -9.6194   -8.6172   -8.3598   -7.9368   -7.5196   -7.2923   -7.2582
          -6.1901   -5.9023   -5.7688   -5.5410   -5.2075   -3.6270   -1.2303   -0.4983   -0.3722    3.3680
    3.8572    7.5231    9.8466   12.0317   12.4650   14.5376   17.6596
  92  1  -10.3196  -10.0963   -9.7921   -9.6757   -8.4568   -8.1332   -8.0374   -7.5327   -7.4804   -7.3699
          -5.9725   -5.8413   -5.7882   -5.6268   -5.4080   -5.2770   -3.1140   -2.2943    1.7591    5.5924
    6.1514    8.9906   10.3552   11.0237   16.8343   17.0810   18.9928
  93  1  -10.4296   -9.6291   -9.3959   -9.3006   -8.5821   -8.5268   -8.3861   -7.8810   -7.5069   -7.3530
          -6.8396   -6.7830   -5.9887   -5.9174   -5.6866   -5.2986   -3.1549   -2.9683    4.6489    6.8450
    8.5840    9.4109    9.7677   11.5535   14.1758   15.4107   21.4780
  94  1  -10.4540   -9.6601   -9.4074   -9.2081   -8.6248   -8.4704   -8.4132   -7.8606   -7.4831   -7.4100
          -6.7934   -6.7709   -5.9767   -5.9178   -5.7308   -5.3048   -3.3864   -2.7766    4.6552    7.1617
    8.8258    8.8681    9.4816   11.8243   14.4790   15.0741   21.5818
  95  1  -10.3684  -10.1115   -9.8025   -9.6084   -8.4857   -8.0384   -7.9855   -7.5927   -7.5542   -7.3023
          -5.9146   -5.8356   -5.7673   -5.6361   -5.4382   -5.3039   -3.4153   -2.0896    1.7728    5.8852
    5.9864    9.3096   10.3650   10.4426   16.7563   17.1502   19.2523
  96  1  -10.0413   -9.8488   -9.7333   -9.5466   -8.6574   -8.3354   -7.8122   -7.6007   -7.3589   -7.1936
          -6.1635   -5.9091   -5.7786   -5.5455   -5.2212   -3.6466   -1.4460   -0.3911   -0.2380    3.5915
    3.6015    7.5819   10.0403   11.5678   12.8076   14.1639   17.9681
  97  1  -10.0308   -9.7860   -9.7320   -9.6194   -8.6172   -8.3598   -7.9368   -7.5196   -7.2923   -7.2582
          -6.1901   -5.9023   -5.7688   -5.5410   -5.2075   -3.6270   -1.2303   -0.4983   -0.3722    3.3680
    3.8572    7.5231    9.8466   12.0317   12.4650   14.5376   17.6596
  98  1   -9.5709   -9.5339   -9.4089   -8.9533   -8.9431   -8.5129   -8.1642   -7.6923   -7.6650   -7.1440
          -6.5841   -6.5577   -6.5235   -5.4141   -5.4114   -3.7370   -1.0133   -0.8046    2.4318    2.4364
    7.3011    8.0600    8.2844    8.4343   11.5771   11.9159   19.0385
  99  1  -10.0413   -9.8488   -9.7333   -9.5466   -8.6574   -8.3354   -7.8122   -7.6007   -7.3589   -7.1936
          -6.1635   -5.9091   -5.7786   -5.5455   -5.2212   -3.6466   -1.4460   -0.3911   -0.2380    3.5915
    3.6015    7.5819   10.0403   11.5678   12.8076   14.1639   17.9681
 100  1  -10.2911  -10.0164   -9.9991   -9.9560   -8.4051   -8.3722   -7.5499   -7.4793   -7.4140   -7.2881
          -5.4585   -5.3691   -5.3640   -5.1093   -5.1003   -2.6694   -2.6135   -1.8356    0.8973    1.1098
    2.6946    9.2386    9.2484   14.6051   15.0776   15.8444   16.1704
 101  1  -10.0308   -9.7860   -9.7320   -9.6194   -8.6172   -8.3598   -7.9368   -7.5196   -7.2923   -7.2582
          -6.1901   -5.9023   -5.7688   -5.5410   -5.2075   -3.6270   -1.2303   -0.4983   -0.3722    3.3680
    3.8572    7.5231    9.8466   12.0317   12.4650   14.5376   17.6596
 102  1   -9.5709   -9.5339   -9.4089   -8.9533   -8.9431   -8.5129   -8.1642   -7.6923   -7.6650   -7.1440
          -6.5841   -6.5577   -6.5235   -5.4141   -5.4114   -3.7370   -1.0133   -0.8046    2.4318    2.4364
    7.3011    8.0600    8.2844    8.4343   11.5771   11.9159   19.0385
 103  1  -10.0413   -9.8488   -9.7333   -9.5466   -8.6574   -8.3354   -7.8122   -7.6007   -7.3589   -7.1936
          -6.1635   -5.9091   -5.7786   -5.5455   -5.2212   -3.6466   -1.4460   -0.3911   -0.2380    3.5915
    3.6015    7.5819   10.0403   11.5678   12.8076   14.1639   17.9681
 104  1  -10.2911  -10.0164   -9.9991   -9.9560   -8.4051   -8.3722   -7.5499   -7.4793   -7.4140   -7.2881
          -5.4585   -5.3691   -5.3640   -5.1093   -5.1003   -2.6694   -2.6135   -1.8356    0.8973    1.1098
    2.6946    9.2386    9.2484   14.6051   15.0776   15.8444   16.1704
 105  1  -10.2946  -10.0879   -9.7850   -9.7116   -8.4407   -8.2006   -8.0398   -7.5013   -7.4421   -7.4027
          -6.0028   -5.8436   -5.7991   -5.6224   -5.3940   -5.2663   -2.9605   -2.3971    1.7571    5.3986
    6.2866    8.8273   10.3575   11.3167   16.6745   17.2410   18.8517
 106  1  -10.4165   -9.6149   -9.3872   -9.3467   -8.5613   -8.5551   -8.3717   -7.8914   -7.5194   -7.3223
          -6.8652   -6.7870   -6.0020   -5.9144   -5.6604   -5.2960   -3.0630   -3.0353    4.6511    6.6672
    8.4664    9.7067    9.9110   11.4228   14.0249   15.5780   21.4114
 107  1  -10.4651   -9.6766   -9.4105   -9.1620   -8.6465   -8.4425   -8.4258   -7.8510   -7.4718   -7.4361
          -6.7732   -6.7626   -5.9816   -5.9151   -5.7449   -5.3085   -3.4985   -2.6794    4.6638    7.2992
    8.5368    9.0358    9.3393   11.9630   14.6307   14.9055   21.6186
 108  1  -10.3920  -10.1183   -9.8057   -9.5775   -8.4983   -8.0316   -7.9158   -7.6212   -7.5893   -7.2677
          -5.8870   -5.8322   -5.7572   -5.6409   -5.4544   -5.3201   -3.5631   -1.9879    1.7845    5.7544
    6.1864    9.4642   10.1551   10.3771   16.5919   17.3059   19.3703
 109  1  -10.0447   -9.8797   -9.7326   -9.5108   -8.6769   -8.3231   -7.7524   -7.6412   -7.3871   -7.1603
          -6.1543   -5.9120   -5.7889   -5.5464   -5.2261   -3.6563   -1.5506   -0.3963   -0.1079    3.4760
    3.7069    7.6186   10.1265   11.3349   12.9790   13.9753   18.1097
 110  1   -9.7089   -9.3811   -9.3002   -9.0911   -8.5607   -8.5427   -7.9876   -7.8693   -7.1583   -6.9681
          -6.8911   -6.2922   -5.8824   -5.8721   -5.5353   -1.5031   -1.4963    0.9028    1.8087    2.6106
    3.1568    5.0442    7.0354    7.6919   12.2454   14.9817   15.3966
 111  1   -9.7089   -9.3811   -9.3002   -9.0911   -8.5607   -8.5427   -7.9876   -7.8693   -7.1583   -6.9681
          -6.8911   -6.2922   -5.8824   -5.8721   -5.5353   -1.5031   -1.4963    0.9028    1.8087    2.6106
    3.1568    5.0442    7.0354    7.6919   12.2454   14.9817   15.3966
 112  1  -10.0238   -9.7543   -9.7300   -9.6558   -8.5968   -8.3717   -7.9992   -7.4798   -7.2891   -7.2556
          -6.2070   -5.8984   -5.7695   -5.5375   -5.1987   -3.6172   -1.1196   -0.6254   -0.3616    3.2604
    3.9873    7.5007    9.7402   12.2624   12.2942   14.7215   17.4936
 113  1  -10.4165   -9.6149   -9.3872   -9.3467   -8.5613   -8.5551   -8.3717   -7.8914   -7.5194   -7.3223
          -6.8652   -6.7870   -6.0020   -5.9144   -5.6604   -5.2960   -3.0630   -3.0353    4.6511    6.6672
    8.4664    9.7067    9.9110   11.4228   14.0249   15.5780   21.4114
 114  1  -11.3258   -9.8255   -9.4648   -9.1088   -8.5372   -8.4570   -8.1311   -7.6848   -7.6215   -7.5767
          -7.1630   -6.7483   -6.7148   -6.6254   -6.2213   -5.3967   -4.1988   -3.9056    6.2325    7.5194
    8.6913   13.2129   13.2133   13.2188   19.1944   19.3512   21.9435
 115  1  -11.6538   -9.6943   -9.6269   -8.7437   -8.5986   -8.4062   -8.3018   -8.2311   -7.6850   -7.6095
          -6.9549   -6.9524   -6.9100   -6.2437   -6.2420   -6.0796   -4.4305   -4.0983    6.2737    7.4772
   11.3939   11.4811   16.4611   17.3000   17.6747   17.9153   23.3029
 116  1  -11.3474   -9.8733   -9.3524   -9.1903   -8.4902   -8.3492   -8.1846   -7.7066   -7.6458   -7.5839
          -7.1323   -6.7100   -6.6659   -6.5250   -6.2585   -5.4654   -4.6846   -3.5885    6.9538    7.4184
    8.0197   12.6333   13.2726   13.8789   18.7449   19.7541   22.0668
 117  1  -10.4651   -9.6766   -9.4105   -9.1620   -8.6465   -8.4425   -8.4258   -7.8510   -7.4718   -7.4361
          -6.7732   -6.7626   -5.9816   -5.9151   -5.7449   -5.3085   -3.4985   -2.6794    4.6638    7.2992
    8.5368    9.0358    9.3393   11.9630   14.6307   14.9055   21.6186
 118  1   -9.5883   -9.5146   -9.4101   -8.9573   -8.9369   -8.5123   -8.1668   -7.7076   -7.6531   -7.1417
          -6.5791   -6.5783   -6.5104   -5.4126   -5.4077   -3.7363   -1.1163   -0.6992    2.4353    2.4444
    7.2357    7.8751    8.3536    8.6238   11.4026   12.0787   19.0203
 119  1   -9.7089   -9.3811   -9.3002   -9.0911   -8.5607   -8.5427   -7.9876   -7.8693   -7.1583   -6.9681
          -6.8911   -6.2922   -5.8824   -5.8721   -5.5353   -1.5031   -1.4963    0.9028    1.8087    2.6106
    3.1568    5.0442    7.0354    7.6919   12.2454   14.9817   15.3966
 120  1   -9.5883   -9.5146   -9.4101   -8.9573   -8.9369   -8.5123   -8.1668   -7.7076   -7.6531   -7.1417
          -6.5791   -6.5783   -6.5104   -5.4126   -5.4077   -3.7363   -1.1163   -0.6992    2.4353    2.4444
    7.2357    7.8751    8.3536    8.6238   11.4026   12.0787   19.0203
 121  1  -10.4651   -9.6766   -9.4105   -9.1620   -8.6465   -8.4425   -8.4258   -7.8510   -7.4718   -7.4361
          -6.7732   -6.7626   -5.9816   -5.9151   -5.7449   -5.3085   -3.4985   -2.6794    4.6638    7.2992
    8.5368    9.0358    9.3393   11.9630   14.6307   14.9055   21.6186
 122  1  -11.6538   -9.6943   -9.6269   -8.7437   -8.5986   -8.4062   -8.3018   -8.2311   -7.6850   -7.6095
          -6.9549   -6.9524   -6.9100   -6.2437   -6.2420   -6.0796   -4.4305   -4.0983    6.2737    7.4772
   11.3939   11.4811   16.4611   17.3000   17.6747   17.9153   23.3029
 123  1  -12.4367  -10.3388  -10.3080   -8.1933   -8.1357   -8.0722   -7.9359   -7.8597   -7.8459   -7.7998
          -7.6018   -7.5712   -6.7417   -6.5175   -6.4829   -5.5978   -5.2624   -5.0500    5.3993    6.7421
   15.2201   16.9351   18.8831   20.4415   21.0232   22.0676   23.2256
 124  1  -12.4376  -10.3800  -10.2653   -8.1658   -8.1628   -8.0883   -8.0009   -7.8793   -7.8633   -7.6632
          -7.6447   -7.5333   -6.6916   -6.5584   -6.3306   -5.6908   -5.5941   -4.8086    5.5035    6.6387
   15.1116   17.0587   19.3846   20.0648   20.5511   22.4286   23.2142
 125  1  -11.6538   -9.6943   -9.6269   -8.7437   -8.5986   -8.4062   -8.3018   -8.2311   -7.6850   -7.6095
          -6.9549   -6.9524   -6.9100   -6.2437   -6.2420   -6.0796   -4.4305   -4.0983    6.2737    7.4772
   11.3939   11.4811   16.4611   17.3000   17.6747   17.9153   23.3029
 126  1  -10.4165   -9.6149   -9.3872   -9.3467   -8.5613   -8.5551   -8.3717   -7.8914   -7.5194   -7.3223
          -6.8652   -6.7870   -6.0020   -5.9144   -5.6604   -5.2960   -3.0630   -3.0353    4.6511    6.6672
    8.4664    9.7067    9.9110   11.4228   14.0249   15.5780   21.4114
 127  1  -10.0238   -9.7543   -9.7300   -9.6558   -8.5968   -8.3717   -7.9992   -7.4798   -7.2891   -7.2556
          -6.2070   -5.8984   -5.7695   -5.5375   -5.1987   -3.6172   -1.1196   -0.6254   -0.3616    3.2604
    3.9873    7.5007    9.7402   12.2624   12.2942   14.7215   17.4936
 128  1  -10.0447   -9.8797   -9.7326   -9.5108   -8.6769   -8.3231   -7.7524   -7.6412   -7.3871   -7.1603
          -6.1543   -5.9120   -5.7889   -5.5464   -5.2261   -3.6563   -1.5506   -0.3963   -0.1079    3.4760
    3.7069    7.6186   10.1265   11.3349   12.9790   13.9753   18.1097
 129  1  -10.3920  -10.1183   -9.8057   -9.5775   -8.4983   -8.0316   -7.9158   -7.6212   -7.5893   -7.2677
          -5.8870   -5.8322   -5.7572   -5.6409   -5.4544   -5.3201   -3.5631   -1.9879    1.7845    5.7544
    6.1864    9.4642   10.1551   10.3771   16.5919   17.3059   19.3703
 130  1  -11.3474   -9.8733   -9.3524   -9.1903   -8.4902   -8.3492   -8.1846   -7.7066   -7.6458   -7.5839
          -7.1323   -6.7100   -6.6659   -6.5250   -6.2585   -5.4654   -4.6846   -3.5885    6.9538    7.4184
    8.0197   12.6333   13.2726   13.8789   18.7449   19.7541   22.0668
 131  1  -12.4376  -10.3800  -10.2653   -8.1658   -8.1628   -8.0883   -8.0009   -7.8793   -7.8633   -7.6632
          -7.6447   -7.5333   -6.6916   -6.5584   -6.3306   -5.6908   -5.5941   -4.8086    5.5035    6.6387
   15.1116   17.0587   19.3846   20.0648   20.5511   22.4286   23.2142
 132  1  -12.8523  -10.7675  -10.6898   -8.0308   -8.0181   -8.0181   -7.8932   -7.8932   -7.8535   -7.8535
          -7.3605   -6.9867   -6.5703   -6.5703   -6.0472   -6.0472   -5.9246   -5.9246    5.0367    6.2747
   20.0125   20.0125   20.2824   20.2824   23.4903   23.5292   23.5292
 133  1  -12.4367  -10.3388  -10.3080   -8.1933   -8.1357   -8.0722   -7.9359   -7.8597   -7.8459   -7.7998
          -7.6018   -7.5712   -6.7417   -6.5175   -6.4829   -5.5978   -5.2624   -5.0500    5.3993    6.7421
   15.2201   16.9351   18.8831   20.4415   21.0232   22.0676   23.2256
 134  1  -11.3258   -9.8255   -9.4648   -9.1088   -8.5372   -8.4570   -8.1311   -7.6848   -7.6215   -7.5767
          -7.1630   -6.7483   -6.7148   -6.6254   -6.2213   -5.3967   -4.1988   -3.9056    6.2325    7.5194
    8.6913   13.2129   13.2133   13.2188   19.1944   19.3512   21.9435
 135  1  -10.2946  -10.0879   -9.7850   -9.7116   -8.4407   -8.2006   -8.0398   -7.5013   -7.4421   -7.4027
          -6.0028   -5.8436   -5.7991   -5.6224   -5.3940   -5.2663   -2.9605   -2.3971    1.7571    5.3986
    6.2866    8.8273   10.3575   11.3167   16.6745   17.2410   18.8517
 136  1  -10.2894  -10.0474   -9.9976   -9.9269   -8.4222   -8.3560   -7.5837   -7.4721   -7.4427   -7.2212
          -5.4605   -5.3716   -5.3613   -5.1173   -5.1019   -2.6997   -2.5878   -1.8382    0.7953    1.2201
    2.7094    9.2255    9.2560   14.3647   15.3089   15.6795   16.3310
 137  1  -10.0447   -9.8797   -9.7326   -9.5108   -8.6769   -8.3231   -7.7524   -7.6412   -7.3871   -7.1603
          -6.1543   -5.9120   -5.7889   -5.5464   -5.2261   -3.6563   -1.5506   -0.3963   -0.1079    3.4760
    3.7069    7.6186   10.1265   11.3349   12.9790   13.9753   18.1097
 138  1  -10.4651   -9.6766   -9.4105   -9.1620   -8.6465   -8.4425   -8.4258   -7.8510   -7.4718   -7.4361
          -6.7732   -6.7626   -5.9816   -5.9151   -5.7449   -5.3085   -3.4985   -2.6794    4.6638    7.2992
    8.5368    9.0358    9.3393   11.9630   14.6307   14.9055   21.6186
 139  1  -11.6538   -9.6943   -9.6269   -8.7437   -8.5986   -8.4062   -8.3018   -8.2311   -7.6850   -7.6095
          -6.9549   -6.9524   -6.9100   -6.2437   -6.2420   -6.0796   -4.4305   -4.0983    6.2737    7.4772
   11.3939   11.4811   16.4611   17.3000   17.6747   17.9153   23.3029
 140  1  -12.4367  -10.3388  -10.3080   -8.1933   -8.1357   -8.0722   -7.9359   -7.8597   -7.8459   -7.7998
          -7.6018   -7.5712   -6.7417   -6.5175   -6.4829   -5.5978   -5.2624   -5.0500    5.3993    6.7421
   15.2201   16.9351   18.8831   20.4415   21.0232   22.0676   23.2256
 141  1  -12.4376  -10.3800  -10.2653   -8.1658   -8.1628   -8.0883   -8.0009   -7.8793   -7.8633   -7.6632
          -7.6447   -7.5333   -6.6916   -6.5584   -6.3306   -5.6908   -5.5941   -4.8086    5.5035    6.6387
   15.1116   17.0587   19.3846   20.0648   20.5511   22.4286   23.2142
 142  1  -11.6538   -9.6943   -9.6269   -8.7437   -8.5986   -8.4062   -8.3018   -8.2311   -7.6850   -7.6095
          -6.9549   -6.9524   -6.9100   -6.2437   -6.2420   -6.0796   -4.4305   -4.0983    6.2737    7.4772
   11.3939   11.4811   16.4611   17.3000   17.6747   17.9153   23.3029
 143  1  -10.4165   -9.6149   -9.3872   -9.3467   -8.5613   -8.5551   -8.3717   -7.8914   -7.5194   -7.3223
          -6.8652   -6.7870   -6.0020   -5.9144   -5.6604   -5.2960   -3.0630   -3.0353    4.6511    6.6672
    8.4664    9.7067    9.9110   11.4228   14.0249   15.5780   21.4114
 144  1  -10.0238   -9.7543   -9.7300   -9.6558   -8.5968   -8.3717   -7.9992   -7.4798   -7.2891   -7.2556
          -6.2070   -5.8984   -5.7695   -5.5375   -5.1987   -3.6172   -1.1196   -0.6254   -0.3616    3.2604
    3.9873    7.5007    9.7402   12.2624   12.2942   14.7215   17.4936
 145  1   -9.7089   -9.3811   -9.3002   -9.0911   -8.5607   -8.5427   -7.9876   -7.8693   -7.1583   -6.9681
          -6.8911   -6.2922   -5.8824   -5.8721   -5.5353   -1.5031   -1.4963    0.9028    1.8087    2.6106
    3.1568    5.0442    7.0354    7.6919   12.2454   14.9817   15.3966
 146  1   -9.5883   -9.5146   -9.4101   -8.9573   -8.9369   -8.5123   -8.1668   -7.7076   -7.6531   -7.1417
          -6.5791   -6.5783   -6.5104   -5.4126   -5.4077   -3.7363   -1.1163   -0.6992    2.4353    2.4444
    7.2357    7.8751    8.3536    8.6238   11.4026   12.0787   19.0203
 147  1  -10.4165   -9.6149   -9.3872   -9.3467   -8.5613   -8.5551   -8.3717   -7.8914   -7.5194   -7.3223
          -6.8652   -6.7870   -6.0020   -5.9144   -5.6604   -5.2960   -3.0630   -3.0353    4.6511    6.6672
    8.4664    9.7067    9.9110   11.4228   14.0249   15.5780   21.4114
 148  1  -11.3258   -9.8255   -9.4648   -9.1088   -8.5372   -8.4570   -8.1311   -7.6848   -7.6215   -7.5767
          -7.1630   -6.7483   -6.7148   -6.6254   -6.2213   -5.3967   -4.1988   -3.9056    6.2325    7.5194
    8.6913   13.2129   13.2133   13.2188   19.1944   19.3512   21.9435
 149  1  -11.6538   -9.6943   -9.6269   -8.7437   -8.5986   -8.4062   -8.3018   -8.2311   -7.6850   -7.6095
          -6.9549   -6.9524   -6.9100   -6.2437   -6.2420   -6.0796   -4.4305   -4.0983    6.2737    7.4772
   11.3939   11.4811   16.4611   17.3000   17.6747   17.9153   23.3029
 150  1  -11.3474   -9.8733   -9.3524   -9.1903   -8.4902   -8.3492   -8.1846   -7.7066   -7.6458   -7.5839
          -7.1323   -6.7100   -6.6659   -6.5250   -6.2585   -5.4654   -4.6846   -3.5885    6.9538    7.4184
    8.0197   12.6333   13.2726   13.8789   18.7449   19.7541   22.0668
 151  1  -10.4651   -9.6766   -9.4105   -9.1620   -8.6465   -8.4425   -8.4258   -7.8510   -7.4718   -7.4361
          -6.7732   -6.7626   -5.9816   -5.9151   -5.7449   -5.3085   -3.4985   -2.6794    4.6638    7.2992
    8.5368    9.0358    9.3393   11.9630   14.6307   14.9055   21.6186
 152  1   -9.5883   -9.5146   -9.4101   -8.9573   -8.9369   -8.5123   -8.1668   -7.7076   -7.6531   -7.1417
          -6.5791   -6.5783   -6.5104   -5.4126   -5.4077   -3.7363   -1.1163   -0.6992    2.4353    2.4444
    7.2357    7.8751    8.3536    8.6238   11.4026   12.0787   19.0203
 153  1   -9.7089   -9.3811   -9.3002   -9.0911   -8.5607   -8.5427   -7.9876   -7.8693   -7.1583   -6.9681
          -6.8911   -6.2922   -5.8824   -5.8721   -5.5353   -1.5031   -1.4963    0.9028    1.8087    2.6106
    3.1568    5.0442    7.0354    7.6919   12.2454   14.9817   15.3966
 154  1   -9.7089   -9.3811   -9.3002   -9.0911   -8.5607   -8.5427   -7.9876   -7.8693   -7.1583   -6.9681
          -6.8911   -6.2922   -5.8824   -5.8721   -5.5353   -1.5031   -1.4963    0.9028    1.8087    2.6106
    3.1568    5.0442    7.0354    7.6919   12.2454   14.9817   15.3966
 155  1  -10.0238   -9.7543   -9.7300   -9.6558   -8.5968   -8.3717   -7.9992   -7.4798   -7.2891   -7.2556
          -6.2070   -5.8984   -5.7695   -5.5375   -5.1987   -3.6172   -1.1196   -0.6254   -0.3616    3.2604
    3.9873    7.5007    9.7402   12.2624   12.2942   14.7215   17.4936
 156  1  -10.2946  -10.0879   -9.7850   -9.7116   -8.4407   -8.2006   -8.0398   -7.5013   -7.4421   -7.4027
          -6.0028   -5.8436   -5.7991   -5.6224   -5.3940   -5.2663   -2.9605   -2.3971    1.7571    5.3986
    6.2866    8.8273   10.3575   11.3167   16.6745   17.2410   18.8517
 157  1  -10.4165   -9.6149   -9.3872   -9.3467   -8.5613   -8.5551   -8.3717   -7.8914   -7.5194   -7.3223
          -6.8652   -6.7870   -6.0020   -5.9144   -5.6604   -5.2960   -3.0630   -3.0353    4.6511    6.6672
    8.4664    9.7067    9.9110   11.4228   14.0249   15.5780   21.4114
 158  1  -10.4651   -9.6766   -9.4105   -9.1620   -8.6465   -8.4425   -8.4258   -7.8510   -7.4718   -7.4361
          -6.7732   -6.7626   -5.9816   -5.9151   -5.7449   -5.3085   -3.4985   -2.6794    4.6638    7.2992
    8.5368    9.0358    9.3393   11.9630   14.6307   14.9055   21.6186
 159  1  -10.3920  -10.1183   -9.8057   -9.5775   -8.4983   -8.0316   -7.9158   -7.6212   -7.5893   -7.2677
          -5.8870   -5.8322   -5.7572   -5.6409   -5.4544   -5.3201   -3.5631   -1.9879    1.7845    5.7544
    6.1864    9.4642   10.1551   10.3771   16.5919   17.3059   19.3703
 160  1  -10.0447   -9.8797   -9.7326   -9.5108   -8.6769   -8.3231   -7.7524   -7.6412   -7.3871   -7.1603
          -6.1543   -5.9120   -5.7889   -5.5464   -5.2261   -3.6563   -1.5506   -0.3963   -0.1079    3.4760
    3.7069    7.6186   10.1265   11.3349   12.9790   13.9753   18.1097
 161  1  -10.0238   -9.7543   -9.7300   -9.6558   -8.5968   -8.3717   -7.9992   -7.4798   -7.2891   -7.2556
          -6.2070   -5.8984   -5.7695   -5.5375   -5.1987   -3.6172   -1.1196   -0.6254   -0.3616    3.2604
    3.9873    7.5007    9.7402   12.2624   12.2942   14.7215   17.4936
 162  1   -9.5883   -9.5146   -9.4101   -8.9573   -8.9369   -8.5123   -8.1668   -7.7076   -7.6531   -7.1417
          -6.5791   -6.5783   -6.5104   -5.4126   -5.4077   -3.7363   -1.1163   -0.6992    2.4353    2.4444
    7.2357    7.8751    8.3536    8.6238   11.4026   12.0787   19.0203
 163  1  -10.0447   -9.8797   -9.7326   -9.5108   -8.6769   -8.3231   -7.7524   -7.6412   -7.3871   -7.1603
          -6.1543   -5.9120   -5.7889   -5.5464   -5.2261   -3.6563   -1.5506   -0.3963   -0.1079    3.4760
    3.7069    7.6186   10.1265   11.3349   12.9790   13.9753   18.1097
 164  1  -10.2894  -10.0474   -9.9976   -9.9269   -8.4222   -8.3560   -7.5837   -7.4721   -7.4427   -7.2212
          -5.4605   -5.3716   -5.3613   -5.1173   -5.1019   -2.6997   -2.5878   -1.8382    0.7953    1.2201
    2.7094    9.2255    9.2560   14.3647   15.3089   15.6795   16.3310
 165  1  -10.0238   -9.7543   -9.7300   -9.6558   -8.5968   -8.3717   -7.9992   -7.4798   -7.2891   -7.2556
          -6.2070   -5.8984   -5.7695   -5.5375   -5.1987   -3.6172   -1.1196   -0.6254   -0.3616    3.2604
    3.9873    7.5007    9.7402   12.2624   12.2942   14.7215   17.4936
 166  1   -9.5883   -9.5146   -9.4101   -8.9573   -8.9369   -8.5123   -8.1668   -7.7076   -7.6531   -7.1417
          -6.5791   -6.5783   -6.5104   -5.4126   -5.4077   -3.7363   -1.1163   -0.6992    2.4353    2.4444
    7.2357    7.8751    8.3536    8.6238   11.4026   12.0787   19.0203
 167  1  -10.0447   -9.8797   -9.7326   -9.5108   -8.6769   -8.3231   -7.7524   -7.6412   -7.3871   -7.1603
          -6.1543   -5.9120   -5.7889   -5.5464   -5.2261   -3.6563   -1.5506   -0.3963   -0.1079    3.4760
    3.7069    7.6186   10.1265   11.3349   12.9790   13.9753   18.1097
 168  1  -10.2894  -10.0474   -9.9976   -9.9269   -8.4222   -8.3560   -7.5837   -7.4721   -7.4427   -7.2212
          -5.4605   -5.3716   -5.3613   -5.1173   -5.1019   -2.6997   -2.5878   -1.8382    0.7953    1.2201
    2.7094    9.2255    9.2560   14.3647   15.3089   15.6795   16.3310
 169  1  -10.2695  -10.0790   -9.7764   -9.7485   -8.4236   -8.2672   -8.0404   -7.4688   -7.4349   -7.4031
          -6.0340   -5.8456   -5.8103   -5.6182   -5.3807   -5.2574   -2.8052   -2.5004    1.7583    5.2070
    6.4231    8.6622   10.3646   11.6109   16.5137   17.3989   18.7035
 170  1  -10.4028   -9.6016   -9.3925   -9.3765   -8.5832   -8.5407   -8.3567   -7.9017   -7.5321   -7.2902
          -6.8923   -6.7900   -6.0184   -5.9099   -5.6333   -5.2940   -3.1570   -2.9133    4.6568    6.4783
    8.3628   10.0045   10.0541   11.2961   13.8749   15.7444   21.3351
 171  1  -10.4754   -9.6936   -9.4120   -9.1162   -8.6683   -8.4377   -8.4150   -7.8420   -7.4610   -7.4606
          -6.7551   -6.7525   -5.9955   -5.9103   -5.7518   -5.3126   -3.6081   -2.5812    4.6759    7.4237
    8.2505    9.1979    9.2201   12.1032   14.7370   14.7820   21.6453
 172  1  -10.4150  -10.1245   -9.8077   -9.5490   -8.5096   -8.0261   -7.8429   -7.6485   -7.6230   -7.2325
          -5.8603   -5.8283   -5.7475   -5.6458   -5.4713   -5.3380   -3.7088   -1.8866    1.7995    5.6251
    6.3884    9.6147    9.8699   10.3939   16.4266   17.4596   19.4800
 173  1  -10.0469   -9.9100   -9.7311   -9.4756   -8.6958   -8.3107   -7.6970   -7.6814   -7.4092   -7.1267
          -6.1484   -5.9144   -5.8021   -5.5464   -5.2299   -3.6659   -1.6529   -0.3998    0.0232    3.3521
    3.8245    7.6604   10.2049   11.1016   13.1503   13.7860   18.2424
 174  1   -9.7057   -9.3990   -9.2776   -9.0897   -8.5672   -8.5404   -8.0198   -7.8427   -7.1663   -6.9870
          -6.8721   -6.2967   -5.8802   -5.8650   -5.5301   -1.4994   -1.4891    0.8938    1.8072    2.4781
    3.2971    5.0739    6.8751    7.8596   12.2183   14.8530   15.4730
 175  1   -9.7057   -9.3990   -9.2776   -9.0897   -8.5672   -8.5404   -8.0198   -7.8427   -7.1663   -6.9870
          -6.8721   -6.2967   -5.8802   -5.8650   -5.5301   -1.4994   -1.4891    0.8938    1.8072    2.4781
    3.2971    5.0739    6.8751    7.8596   12.2183   14.8530   15.4730
 176  1  -10.0157   -9.7270   -9.7227   -9.6920   -8.5764   -8.3836   -8.0608   -7.4416   -7.3180   -7.2170
          -6.2262   -5.8943   -5.7739   -5.5332   -5.1890   -3.6073   -1.0075   -0.7518   -0.3486    3.1559
    4.1188    7.4825    9.6286   12.1239   12.4921   14.9028   17.3204
 177  1  -10.4028   -9.6016   -9.3925   -9.3765   -8.5832   -8.5407   -8.3567   -7.9017   -7.5321   -7.2902
          -6.8923   -6.7900   -6.0184   -5.9099   -5.6333   -5.2940   -3.1570   -2.9133    4.6568    6.4783
    8.3628   10.0045   10.0541   11.2961   13.8749   15.7444   21.3351
 178  1  -11.3170   -9.8159   -9.5032   -9.0861   -8.5415   -8.4839   -8.1152   -7.6789   -7.6292   -7.5571
          -7.1737   -6.7584   -6.7260   -6.6455   -6.2127   -5.3827   -4.0715   -3.9824    5.9451    7.5800
    8.9581   13.0478   13.2160   13.3575   19.0508   19.4987   21.8879
 179  1  -11.6498   -9.7185   -9.6162   -8.7736   -8.5593   -8.4086   -8.3158   -8.2117   -7.6842   -7.6070
          -6.9661   -6.9511   -6.8989   -6.2865   -6.2420   -6.0409   -4.5082   -4.0093    5.9819    7.7862
   11.3814   11.5129   16.3881   17.1467   17.7385   18.0682   23.2787
 180  1  -11.3494   -9.8883   -9.3353   -9.2073   -8.4730   -8.3225   -8.1932   -7.7118   -7.6607   -7.5730
          -7.1271   -6.7012   -6.6524   -6.4956   -6.2685   -5.4854   -4.8000   -3.5062    6.7210    7.7232
    7.9618   12.4892   13.2966   14.0450   18.5904   19.8893   22.0719
 181  1  -10.4754   -9.6936   -9.4120   -9.1162   -8.6683   -8.4377   -8.4150   -7.8420   -7.4610   -7.4606
          -6.7551   -6.7525   -5.9955   -5.9103   -5.7518   -5.3126   -3.6081   -2.5812    4.6759    7.4237
    8.2505    9.1979    9.2201   12.1032   14.7370   14.7820   21.6453
 182  1   -9.6050   -9.4947   -9.4122   -8.9604   -8.9301   -8.5114   -8.1712   -7.7239   -7.6425   -7.1380
          -6.6008   -6.5709   -6.5001   -5.4092   -5.4027   -3.7352   -1.2185   -0.5929    2.4426    2.4561
    7.1420    7.6918    8.4537    8.8147   11.2256   12.2362   18.9902
 183  1   -9.7057   -9.3990   -9.2776   -9.0897   -8.5672   -8.5404   -8.0198   -7.8427   -7.1663   -6.9870
          -6.8721   -6.2967   -5.8802   -5.8650   -5.5301   -1.4994   -1.4891    0.8938    1.8072    2.4781
    3.2971    5.0739    6.8751    7.8596   12.2183   14.8530   15.4730
 184  1   -9.6050   -9.4947   -9.4122   -8.9604   -8.9301   -8.5114   -8.1712   -7.7239   -7.6425   -7.1380
          -6.6008   -6.5709   -6.5001   -5.4092   -5.4027   -3.7352   -1.2185   -0.5929    2.4426    2.4561
    7.1420    7.6918    8.4537    8.8147   11.2256   12.2362   18.9902
 185  1  -10.4754   -9.6936   -9.4120   -9.1162   -8.6683   -8.4377   -8.4150   -7.8420   -7.4610   -7.4606
          -6.7551   -6.7525   -5.9955   -5.9103   -5.7518   -5.3126   -3.6081   -2.5812    4.6759    7.4237
    8.2505    9.1979    9.2201   12.1032   14.7370   14.7820   21.6453
 186  1  -11.6498   -9.7185   -9.6162   -8.7736   -8.5593   -8.4086   -8.3158   -8.2117   -7.6842   -7.6070
          -6.9661   -6.9511   -6.8989   -6.2865   -6.2420   -6.0409   -4.5082   -4.0093    5.9819    7.7862
   11.3814   11.5129   16.3881   17.1467   17.7385   18.0682   23.2787
 187  1  -12.4319  -10.3630  -10.2946   -8.2032   -8.1623   -8.0854   -7.8779   -7.8524   -7.8395   -7.8130
          -7.5905   -7.5809   -6.7548   -6.5203   -6.5082   -5.5764   -5.1734   -5.1067    5.1012    7.0636
   15.2550   16.9123   18.7572   20.5257   21.1392   21.9718   23.1967
 188  1  -12.4333  -10.4033  -10.2521   -8.2148   -8.1582   -8.0891   -7.9852   -7.8812   -7.8656   -7.6548
          -7.6117   -7.5242   -6.6795   -6.5695   -6.2923   -5.7155   -5.6712   -4.7440    5.2057    6.9603
   15.0925   17.0974   19.5087   19.9628   20.4318   22.5125   23.1781
 189  1  -11.6498   -9.7185   -9.6162   -8.7736   -8.5593   -8.4086   -8.3158   -8.2117   -7.6842   -7.6070
          -6.9661   -6.9511   -6.8989   -6.2865   -6.2420   -6.0409   -4.5082   -4.0093    5.9819    7.7862
   11.3814   11.5129   16.3881   17.1467   17.7385   18.0682   23.2787
 190  1  -10.4028   -9.6016   -9.3925   -9.3765   -8.5832   -8.5407   -8.3567   -7.9017   -7.5321   -7.2902
          -6.8923   -6.7900   -6.0184   -5.9099   -5.6333   -5.2940   -3.1570   -2.9133    4.6568    6.4783
    8.3628   10.0045   10.0541   11.2961   13.8749   15.7444   21.3351
 191  1  -10.0157   -9.7270   -9.7227   -9.6920   -8.5764   -8.3836   -8.0608   -7.4416   -7.3180   -7.2170
          -6.2262   -5.8943   -5.7739   -5.5332   -5.1890   -3.6073   -1.0075   -0.7518   -0.3486    3.1559
    4.1188    7.4825    9.6286   12.1239   12.4921   14.9028   17.3204
 192  1  -10.0469   -9.9100   -9.7311   -9.4756   -8.6958   -8.3107   -7.6970   -7.6814   -7.4092   -7.1267
          -6.1484   -5.9144   -5.8021   -5.5464   -5.2299   -3.6659   -1.6529   -0.3998    0.0232    3.3521
    3.8245    7.6604   10.2049   11.1016   13.1503   13.7860   18.2424
 193  1  -10.4150  -10.1245   -9.8077   -9.5490   -8.5096   -8.0261   -7.8429   -7.6485   -7.6230   -7.2325
          -5.8603   -5.8283   -5.7475   -5.6458   -5.4713   -5.3380   -3.7088   -1.8866    1.7995    5.6251
    6.3884    9.6147    9.8699   10.3939   16.4266   17.4596   19.4800
 194  1  -11.3494   -9.8883   -9.3353   -9.2073   -8.4730   -8.3225   -8.1932   -7.7118   -7.6607   -7.5730
          -7.1271   -6.7012   -6.6524   -6.4956   -6.2685   -5.4854   -4.8000   -3.5062    6.7210    7.7232
    7.9618   12.4892   13.2966   14.0450   18.5904   19.8893   22.0719
 195  1  -12.4333  -10.4033  -10.2521   -8.2148   -8.1582   -8.0891   -7.9852   -7.8812   -7.8656   -7.6548
          -7.6117   -7.5242   -6.6795   -6.5695   -6.2923   -5.7155   -5.6712   -4.7440    5.2057    6.9603
   15.0925   17.0974   19.5087   19.9628   20.4318   22.5125   23.1781
 196  1  -12.8477  -10.7919  -10.6750   -8.0325   -8.0162   -8.0162   -7.9030   -7.9030   -7.8437   -7.8437
          -7.4434   -6.8834   -6.5712   -6.5712   -6.0780   -6.0780   -5.8946   -5.8946    4.7400    6.5969
   19.9485   19.9485   20.3529   20.3529   23.4478   23.5221   23.5221
 197  1  -12.4319  -10.3630  -10.2946   -8.2032   -8.1623   -8.0854   -7.8779   -7.8524   -7.8395   -7.8130
          -7.5905   -7.5809   -6.7548   -6.5203   -6.5082   -5.5764   -5.1734   -5.1067    5.1012    7.0636
   15.2550   16.9123   18.7572   20.5257   21.1392   21.9718   23.1967
 198  1  -11.3170   -9.8159   -9.5032   -9.0861   -8.5415   -8.4839   -8.1152   -7.6789   -7.6292   -7.5571
          -7.1737   -6.7584   -6.7260   -6.6455   -6.2127   -5.3827   -4.0715   -3.9824    5.9451    7.5800
    8.9581   13.0478   13.2160   13.3575   19.0508   19.4987   21.8879
 199  1  -10.2695  -10.0790   -9.7764   -9.7485   -8.4236   -8.2672   -8.0404   -7.4688   -7.4349   -7.4031
          -6.0340   -5.8456   -5.8103   -5.6182   -5.3807   -5.2574   -2.8052   -2.5004    1.7583    5.2070
    6.4231    8.6622   10.3646   11.6109   16.5137   17.3989   18.7035
 200  1  -10.2864  -10.0785   -9.9951   -9.8989   -8.4400   -8.3400   -7.6165   -7.5262   -7.4051   -7.1521
          -5.4638   -5.3740   -5.3585   -5.1306   -5.1046   -2.7318   -2.5635   -1.8424    0.6964    1.3329
    2.7340    9.2038    9.2686   14.1220   15.5137   15.5365   16.4897
 201  1  -10.0469   -9.9100   -9.7311   -9.4756   -8.6958   -8.3107   -7.6970   -7.6814   -7.4092   -7.1267
[...]
    6.2094    9.9097   10.9476   13.5763   16.4900   16.9860   19.1343
1900  1  -10.5688  -10.0192   -9.7001   -9.4827   -9.1008   -7.9885   -7.9551   -7.1575   -6.9870   -6.3747
          -6.3297   -6.2890   -5.7919   -5.5832   -5.5328   -5.3094   -5.2716    0.9071    1.8092    2.8600
    5.0153    9.9321   12.2712   12.4482   13.0289   18.6538   19.9032
1901  1  -10.2932   -9.6437   -9.5469   -9.4010   -9.2144   -8.2178   -7.8023   -7.5061   -7.4345   -6.6983
          -6.2939   -5.9773   -5.7125   -5.4548   -5.2425   -3.4335   -3.2625    0.1716    0.7466    3.0089
    6.0894    7.0169    8.7179    9.4367   11.6806   16.8006   17.9203
1902  1   -9.5875   -9.1878   -9.1878   -8.8686   -8.8686   -8.6406   -8.1596   -8.1596   -7.5520   -7.2192
          -6.5461   -6.5461   -5.5522   -5.4258   -5.4258   -0.5974   -0.5974   -0.3895   -0.3611    3.2532
    3.2532    7.0044    7.0044   10.3732   10.3732   11.8092   14.3429
1903  1   -9.5875   -9.1878   -9.1878   -8.8686   -8.8686   -8.6406   -8.1596   -8.1596   -7.5520   -7.2192
          -6.5461   -6.5461   -5.5522   -5.4258   -5.4258   -0.5974   -0.5974   -0.3895   -0.3611    3.2532
    3.2532    7.0044    7.0044   10.3732   10.3732   11.8092   14.3429
1904  1  -10.2932   -9.6437   -9.5469   -9.4010   -9.2144   -8.2178   -7.8023   -7.5061   -7.4345   -6.6983
          -6.2939   -5.9773   -5.7125   -5.4548   -5.2425   -3.4335   -3.2625    0.1716    0.7466    3.0089
    6.0894    7.0169    8.7179    9.4367   11.6806   16.8006   17.9203
1905  1  -10.3476  -10.0525   -9.2747   -9.1447   -8.8270   -8.0607   -8.0269   -7.9593   -7.7327   -7.5609
          -6.7621   -6.6280   -5.9354   -5.6404   -5.4253   -5.4239   -5.3739    0.4411    2.0832    6.0175
    6.2094    9.9097   10.9476   13.5763   16.4900   16.9860   19.1343
1906  1  -10.8404  -10.6820   -9.5619   -9.0877   -8.6117   -8.1728   -7.7498   -7.6735   -7.6523   -7.3166
          -7.0163   -6.8431   -6.8366   -6.5920   -6.0404   -5.7926   -5.5854   -0.3637    0.4159    9.1961
    9.3022   14.7559   15.3176   15.3224   17.7673   17.8590   21.9004
1907  1  -10.9660  -10.9660   -9.5819   -8.7126   -8.7126   -8.6321   -7.7040   -7.7040   -7.5602   -7.3176
          -7.3176   -7.2173   -6.6992   -6.6992   -6.0192   -6.0192   -5.5499   -0.3990   -0.3697   11.8052
   13.1397   13.1397   14.3512   16.8980   16.8980   21.0309   21.0309
1908  1  -10.8404  -10.6820   -9.5619   -9.0877   -8.6117   -8.1728   -7.7498   -7.6735   -7.6523   -7.3166
          -7.0163   -6.8431   -6.8366   -6.5920   -6.0404   -5.7926   -5.5854   -0.3637    0.4159    9.1961
    9.3022   14.7559   15.3176   15.3224   17.7673   17.8590   21.9004
1909  1  -10.3476  -10.0525   -9.2747   -9.1447   -8.8270   -8.0607   -8.0269   -7.9593   -7.7327   -7.5609
          -6.7621   -6.6280   -5.9354   -5.6404   -5.4253   -5.4239   -5.3739    0.4411    2.0832    6.0175
    6.2094    9.9097   10.9476   13.5763   16.4900   16.9860   19.1343
1910  1   -9.6835   -9.6835   -9.2083   -8.5801   -8.5801   -8.4550   -8.4494   -8.0809   -8.0809   -6.9996
          -6.9996   -6.6996   -5.5710   -5.5710   -5.1009   -3.3287   -3.3287    1.9873    3.6613    3.6687
    3.9481    3.9481    7.8567   12.2678   12.2678   14.9901   14.9901
1911  1   -9.5875   -9.1878   -9.1878   -8.8686   -8.8686   -8.6406   -8.1596   -8.1596   -7.5520   -7.2192
          -6.5461   -6.5461   -5.5522   -5.4258   -5.4258   -0.5974   -0.5974   -0.3895   -0.3611    3.2532
    3.2532    7.0044    7.0044   10.3732   10.3732   11.8092   14.3429
1912  1   -9.6835   -9.6835   -9.2083   -8.5801   -8.5801   -8.4550   -8.4494   -8.0809   -8.0809   -6.9996
          -6.9996   -6.6996   -5.5710   -5.5710   -5.1009   -3.3287   -3.3287    1.9873    3.6613    3.6687
    3.9481    3.9481    7.8567   12.2678   12.2678   14.9901   14.9901
1913  1  -10.3476  -10.0525   -9.2747   -9.1447   -8.8270   -8.0607   -8.0269   -7.9593   -7.7327   -7.5609
          -6.7621   -6.6280   -5.9354   -5.6404   -5.4253   -5.4239   -5.3739    0.4411    2.0832    6.0175
    6.2094    9.9097   10.9476   13.5763   16.4900   16.9860   19.1343
1914  1  -10.9660  -10.9660   -9.5819   -8.7126   -8.7126   -8.6321   -7.7040   -7.7040   -7.5602   -7.3176
          -7.3176   -7.2173   -6.6992   -6.6992   -6.0192   -6.0192   -5.5499   -0.3990   -0.3697   11.8052
   13.1397   13.1397   14.3512   16.8980   16.8980   21.0309   21.0309
1915  1  -11.6544  -11.6487  -10.2078   -8.5513   -8.4107   -8.2692   -7.7686   -7.6794   -7.6049   -7.5688
          -7.5069   -6.9834   -6.9538   -6.6415   -6.3003   -6.2508   -5.4731   -2.2406   -0.5706   15.8663
   16.5190   16.7627   17.6172   17.6268   19.1076   21.9538   23.3298
1916  1  -11.6544  -11.6487  -10.2078   -8.5513   -8.4107   -8.2692   -7.7686   -7.6794   -7.6049   -7.5688
          -7.5069   -6.9834   -6.9538   -6.6415   -6.3003   -6.2508   -5.4731   -2.2406   -0.5706   15.8663
   16.5190   16.7627   17.6172   17.6268   19.1076   21.9538   23.3298
1917  1  -10.9660  -10.9660   -9.5819   -8.7126   -8.7126   -8.6321   -7.7040   -7.7040   -7.5602   -7.3176
          -7.3176   -7.2173   -6.6992   -6.6992   -6.0192   -6.0192   -5.5499   -0.3990   -0.3697   11.8052
   13.1397   13.1397   14.3512   16.8980   16.8980   21.0309   21.0309
1918  1  -10.3476  -10.0525   -9.2747   -9.1447   -8.8270   -8.0607   -8.0269   -7.9593   -7.7327   -7.5609
          -6.7621   -6.6280   -5.9354   -5.6404   -5.4253   -5.4239   -5.3739    0.4411    2.0832    6.0175
    6.2094    9.9097   10.9476   13.5763   16.4900   16.9860   19.1343
1919  1  -10.2932   -9.6437   -9.5469   -9.4010   -9.2144   -8.2178   -7.8023   -7.5061   -7.4345   -6.6983
          -6.2939   -5.9773   -5.7125   -5.4548   -5.2425   -3.4335   -3.2625    0.1716    0.7466    3.0089
    6.0894    7.0169    8.7179    9.4367   11.6806   16.8006   17.9203
1920  1  -10.2932   -9.6437   -9.5469   -9.4010   -9.2144   -8.2178   -7.8023   -7.5061   -7.4345   -6.6983
          -6.2939   -5.9773   -5.7125   -5.4548   -5.2425   -3.4335   -3.2625    0.1716    0.7466    3.0089
    6.0894    7.0169    8.7179    9.4367   11.6806   16.8006   17.9203
1921  1  -10.5688  -10.0192   -9.7001   -9.4827   -9.1008   -7.9885   -7.9551   -7.1575   -6.9870   -6.3747
          -6.3297   -6.2890   -5.7919   -5.5832   -5.5328   -5.3094   -5.2716    0.9071    1.8092    2.8600
    5.0153    9.9321   12.2712   12.4482   13.0289   18.6538   19.9032
1922  1  -10.8404  -10.6820   -9.5619   -9.0877   -8.6117   -8.1728   -7.7498   -7.6735   -7.6523   -7.3166
          -7.0163   -6.8431   -6.8366   -6.5920   -6.0404   -5.7926   -5.5854   -0.3637    0.4159    9.1961
    9.3022   14.7559   15.3176   15.3224   17.7673   17.8590   21.9004
1923  1  -11.6544  -11.6487  -10.2078   -8.5513   -8.4107   -8.2692   -7.7686   -7.6794   -7.6049   -7.5688
          -7.5069   -6.9834   -6.9538   -6.6415   -6.3003   -6.2508   -5.4731   -2.2406   -0.5706   15.8663
   16.5190   16.7627   17.6172   17.6268   19.1076   21.9538   23.3298
1924  1  -12.0474  -12.0474  -10.5801   -8.2209   -8.2209   -8.0564   -8.0564   -7.7834   -7.7834   -7.7834
          -7.7834   -6.6233   -6.6233   -6.6233   -6.6233   -5.4190   -5.4190   -3.9330   -0.5959   16.7419
   16.7419   19.0146   19.0146   22.3794   22.3794   22.3794   22.3794
1925  1  -11.6544  -11.6487  -10.2078   -8.5513   -8.4107   -8.2692   -7.7686   -7.6794   -7.6049   -7.5688
          -7.5069   -6.9834   -6.9538   -6.6415   -6.3003   -6.2508   -5.4731   -2.2406   -0.5706   15.8663
   16.5190   16.7627   17.6172   17.6268   19.1076   21.9538   23.3298
1926  1  -10.8404  -10.6820   -9.5619   -9.0877   -8.6117   -8.1728   -7.7498   -7.6735   -7.6523   -7.3166
          -7.0163   -6.8431   -6.8366   -6.5920   -6.0404   -5.7926   -5.5854   -0.3637    0.4159    9.1961
    9.3022   14.7559   15.3176   15.3224   17.7673   17.8590   21.9004
1927  1  -10.5688  -10.0192   -9.7001   -9.4827   -9.1008   -7.9885   -7.9551   -7.1575   -6.9870   -6.3747
          -6.3297   -6.2890   -5.7919   -5.5832   -5.5328   -5.3094   -5.2716    0.9071    1.8092    2.8600
    5.0153    9.9321   12.2712   12.4482   13.0289   18.6538   19.9032
1928  1  -10.5846   -9.8911   -9.8911   -9.4785   -9.4785   -8.0672   -8.0630   -6.7788   -6.7788   -6.1904
          -6.1904   -5.4204   -5.4077   -5.2658   -5.2658   -3.9251   -2.1678   -2.1678   -0.5832    4.4610
    4.4610    8.1983    8.1983   11.3233   11.3233   19.0072   19.0190
1929  1  -10.2932   -9.6437   -9.5469   -9.4010   -9.2144   -8.2178   -7.8023   -7.5061   -7.4345   -6.6983
          -6.2939   -5.9773   -5.7125   -5.4548   -5.2425   -3.4335   -3.2625    0.1716    0.7466    3.0089
    6.0894    7.0169    8.7179    9.4367   11.6806   16.8006   17.9203
1930  1  -10.3476  -10.0525   -9.2747   -9.1447   -8.8270   -8.0607   -8.0269   -7.9593   -7.7327   -7.5609
          -6.7621   -6.6280   -5.9354   -5.6404   -5.4253   -5.4239   -5.3739    0.4411    2.0832    6.0175
    6.2094    9.9097   10.9476   13.5763   16.4900   16.9860   19.1343
1931  1  -10.9660  -10.9660   -9.5819   -8.7126   -8.7126   -8.6321   -7.7040   -7.7040   -7.5602   -7.3176
          -7.3176   -7.2173   -6.6992   -6.6992   -6.0192   -6.0192   -5.5499   -0.3990   -0.3697   11.8052
   13.1397   13.1397   14.3512   16.8980   16.8980   21.0309   21.0309
1932  1  -11.6544  -11.6487  -10.2078   -8.5513   -8.4107   -8.2692   -7.7686   -7.6794   -7.6049   -7.5688
          -7.5069   -6.9834   -6.9538   -6.6415   -6.3003   -6.2508   -5.4731   -2.2406   -0.5706   15.8663
   16.5190   16.7627   17.6172   17.6268   19.1076   21.9538   23.3298
1933  1  -11.6544  -11.6487  -10.2078   -8.5513   -8.4107   -8.2692   -7.7686   -7.6794   -7.6049   -7.5688
          -7.5069   -6.9834   -6.9538   -6.6415   -6.3003   -6.2508   -5.4731   -2.2406   -0.5706   15.8663
   16.5190   16.7627   17.6172   17.6268   19.1076   21.9538   23.3298
1934  1  -10.9660  -10.9660   -9.5819   -8.7126   -8.7126   -8.6321   -7.7040   -7.7040   -7.5602   -7.3176
          -7.3176   -7.2173   -6.6992   -6.6992   -6.0192   -6.0192   -5.5499   -0.3990   -0.3697   11.8052
   13.1397   13.1397   14.3512   16.8980   16.8980   21.0309   21.0309
1935  1  -10.3476  -10.0525   -9.2747   -9.1447   -8.8270   -8.0607   -8.0269   -7.9593   -7.7327   -7.5609
          -6.7621   -6.6280   -5.9354   -5.6404   -5.4253   -5.4239   -5.3739    0.4411    2.0832    6.0175
    6.2094    9.9097   10.9476   13.5763   16.4900   16.9860   19.1343
1936  1  -10.2932   -9.6437   -9.5469   -9.4010   -9.2144   -8.2178   -7.8023   -7.5061   -7.4345   -6.6983
          -6.2939   -5.9773   -5.7125   -5.4548   -5.2425   -3.4335   -3.2625    0.1716    0.7466    3.0089
    6.0894    7.0169    8.7179    9.4367   11.6806   16.8006   17.9203
1937  1   -9.5875   -9.1878   -9.1878   -8.8686   -8.8686   -8.6406   -8.1596   -8.1596   -7.5520   -7.2192
          -6.5461   -6.5461   -5.5522   -5.4258   -5.4258   -0.5974   -0.5974   -0.3895   -0.3611    3.2532
    3.2532    7.0044    7.0044   10.3732   10.3732   11.8092   14.3429
1938  1   -9.6835   -9.6835   -9.2083   -8.5801   -8.5801   -8.4550   -8.4494   -8.0809   -8.0809   -6.9996
          -6.9996   -6.6996   -5.5710   -5.5710   -5.1009   -3.3287   -3.3287    1.9873    3.6613    3.6687
    3.9481    3.9481    7.8567   12.2678   12.2678   14.9901   14.9901
1939  1  -10.3476  -10.0525   -9.2747   -9.1447   -8.8270   -8.0607   -8.0269   -7.9593   -7.7327   -7.5609
          -6.7621   -6.6280   -5.9354   -5.6404   -5.4253   -5.4239   -5.3739    0.4411    2.0832    6.0175
    6.2094    9.9097   10.9476   13.5763   16.4900   16.9860   19.1343
1940  1  -10.8404  -10.6820   -9.5619   -9.0877   -8.6117   -8.1728   -7.7498   -7.6735   -7.6523   -7.3166
          -7.0163   -6.8431   -6.8366   -6.5920   -6.0404   -5.7926   -5.5854   -0.3637    0.4159    9.1961
    9.3022   14.7559   15.3176   15.3224   17.7673   17.8590   21.9004
1941  1  -10.9660  -10.9660   -9.5819   -8.7126   -8.7126   -8.6321   -7.7040   -7.7040   -7.5602   -7.3176
          -7.3176   -7.2173   -6.6992   -6.6992   -6.0192   -6.0192   -5.5499   -0.3990   -0.3697   11.8052
   13.1397   13.1397   14.3512   16.8980   16.8980   21.0309   21.0309
1942  1  -10.8404  -10.6820   -9.5619   -9.0877   -8.6117   -8.1728   -7.7498   -7.6735   -7.6523   -7.3166
          -7.0163   -6.8431   -6.8366   -6.5920   -6.0404   -5.7926   -5.5854   -0.3637    0.4159    9.1961
    9.3022   14.7559   15.3176   15.3224   17.7673   17.8590   21.9004
1943  1  -10.3476  -10.0525   -9.2747   -9.1447   -8.8270   -8.0607   -8.0269   -7.9593   -7.7327   -7.5609
          -6.7621   -6.6280   -5.9354   -5.6404   -5.4253   -5.4239   -5.3739    0.4411    2.0832    6.0175
    6.2094    9.9097   10.9476   13.5763   16.4900   16.9860   19.1343
1944  1   -9.6835   -9.6835   -9.2083   -8.5801   -8.5801   -8.4550   -8.4494   -8.0809   -8.0809   -6.9996
          -6.9996   -6.6996   -5.5710   -5.5710   -5.1009   -3.3287   -3.3287    1.9873    3.6613    3.6687
    3.9481    3.9481    7.8567   12.2678   12.2678   14.9901   14.9901
1945  1   -9.5875   -9.1878   -9.1878   -8.8686   -8.8686   -8.6406   -8.1596   -8.1596   -7.5520   -7.2192
          -6.5461   -6.5461   -5.5522   -5.4258   -5.4258   -0.5974   -0.5974   -0.3895   -0.3611    3.2532
    3.2532    7.0044    7.0044   10.3732   10.3732   11.8092   14.3429
1946  1   -9.5875   -9.1878   -9.1878   -8.8686   -8.8686   -8.6406   -8.1596   -8.1596   -7.5520   -7.2192
          -6.5461   -6.5461   -5.5522   -5.4258   -5.4258   -0.5974   -0.5974   -0.3895   -0.3611    3.2532
    3.2532    7.0044    7.0044   10.3732   10.3732   11.8092   14.3429
1947  1  -10.2932   -9.6437   -9.5469   -9.4010   -9.2144   -8.2178   -7.8023   -7.5061   -7.4345   -6.6983
          -6.2939   -5.9773   -5.7125   -5.4548   -5.2425   -3.4335   -3.2625    0.1716    0.7466    3.0089
    6.0894    7.0169    8.7179    9.4367   11.6806   16.8006   17.9203
1948  1  -10.5688  -10.0192   -9.7001   -9.4827   -9.1008   -7.9885   -7.9551   -7.1575   -6.9870   -6.3747
          -6.3297   -6.2890   -5.7919   -5.5832   -5.5328   -5.3094   -5.2716    0.9071    1.8092    2.8600
    5.0153    9.9321   12.2712   12.4482   13.0289   18.6538   19.9032
1949  1  -10.3476  -10.0525   -9.2747   -9.1447   -8.8270   -8.0607   -8.0269   -7.9593   -7.7327   -7.5609
          -6.7621   -6.6280   -5.9354   -5.6404   -5.4253   -5.4239   -5.3739    0.4411    2.0832    6.0175
    6.2094    9.9097   10.9476   13.5763   16.4900   16.9860   19.1343
1950  1  -10.3476  -10.0525   -9.2747   -9.1447   -8.8270   -8.0607   -8.0269   -7.9593   -7.7327   -7.5609
          -6.7621   -6.6280   -5.9354   -5.6404   -5.4253   -5.4239   -5.3739    0.4411    2.0832    6.0175
    6.2094    9.9097   10.9476   13.5763   16.4900   16.9860   19.1343
1951  1  -10.5688  -10.0192   -9.7001   -9.4827   -9.1008   -7.9885   -7.9551   -7.1575   -6.9870   -6.3747
          -6.3297   -6.2890   -5.7919   -5.5832   -5.5328   -5.3094   -5.2716    0.9071    1.8092    2.8600
    5.0153    9.9321   12.2712   12.4482   13.0289   18.6538   19.9032
1952  1  -10.2932   -9.6437   -9.5469   -9.4010   -9.2144   -8.2178   -7.8023   -7.5061   -7.4345   -6.6983
          -6.2939   -5.9773   -5.7125   -5.4548   -5.2425   -3.4335   -3.2625    0.1716    0.7466    3.0089
    6.0894    7.0169    8.7179    9.4367   11.6806   16.8006   17.9203
1953  1  -10.2932   -9.6437   -9.5469   -9.4010   -9.2144   -8.2178   -7.8023   -7.5061   -7.4345   -6.6983
          -6.2939   -5.9773   -5.7125   -5.4548   -5.2425   -3.4335   -3.2625    0.1716    0.7466    3.0089
    6.0894    7.0169    8.7179    9.4367   11.6806   16.8006   17.9203
1954  1   -9.6835   -9.6835   -9.2083   -8.5801   -8.5801   -8.4550   -8.4494   -8.0809   -8.0809   -6.9996
          -6.9996   -6.6996   -5.5710   -5.5710   -5.1009   -3.3287   -3.3287    1.9873    3.6613    3.6687
    3.9481    3.9481    7.8567   12.2678   12.2678   14.9901   14.9901
1955  1  -10.2932   -9.6437   -9.5469   -9.4010   -9.2144   -8.2178   -7.8023   -7.5061   -7.4345   -6.6983
          -6.2939   -5.9773   -5.7125   -5.4548   -5.2425   -3.4335   -3.2625    0.1716    0.7466    3.0089
    6.0894    7.0169    8.7179    9.4367   11.6806   16.8006   17.9203
1956  1  -10.5846   -9.8911   -9.8911   -9.4785   -9.4785   -8.0672   -8.0630   -6.7788   -6.7788   -6.1904
          -6.1904   -5.4204   -5.4077   -5.2658   -5.2658   -3.9251   -2.1678   -2.1678   -0.5832    4.4610
    4.4610    8.1983    8.1983   11.3233   11.3233   19.0072   19.0190
1957  1  -10.2932   -9.6437   -9.5469   -9.4010   -9.2144   -8.2178   -7.8023   -7.5061   -7.4345   -6.6983
          -6.2939   -5.9773   -5.7125   -5.4548   -5.2425   -3.4335   -3.2625    0.1716    0.7466    3.0089
    6.0894    7.0169    8.7179    9.4367   11.6806   16.8006   17.9203
1958  1   -9.6835   -9.6835   -9.2083   -8.5801   -8.5801   -8.4550   -8.4494   -8.0809   -8.0809   -6.9996
          -6.9996   -6.6996   -5.5710   -5.5710   -5.1009   -3.3287   -3.3287    1.9873    3.6613    3.6687
    3.9481    3.9481    7.8567   12.2678   12.2678   14.9901   14.9901
1959  1  -10.2932   -9.6437   -9.5469   -9.4010   -9.2144   -8.2178   -7.8023   -7.5061   -7.4345   -6.6983
          -6.2939   -5.9773   -5.7125   -5.4548   -5.2425   -3.4335   -3.2625    0.1716    0.7466    3.0089
    6.0894    7.0169    8.7179    9.4367   11.6806   16.8006   17.9203
1960  1  -10.5846   -9.8911   -9.8911   -9.4785   -9.4785   -8.0672   -8.0630   -6.7788   -6.7788   -6.1904
          -6.1904   -5.4204   -5.4077   -5.2658   -5.2658   -3.9251   -2.1678   -2.1678   -0.5832    4.4610
    4.4610    8.1983    8.1983   11.3233   11.3233   19.0072   19.0190
siesta: Fermi energy =      -3.417787 eV

siesta: Program's energy decomposition (eV):
siesta: Ebs     =      -250.027484
siesta: Eions   =      3513.674752
siesta: Ena     =       174.746452
siesta: Ekin    =      1909.084583
siesta: Enl     =      -884.137852
siesta: Eso     =         0.000000
siesta: Edftu   =         0.000000
siesta: DEna    =        23.462874
siesta: DUscf   =         1.156162
siesta: DUext   =         0.000000
siesta: Ex      =      -373.842001
siesta: Ec      =       -50.826820
siesta: Exc     =      -424.668820
siesta: eta*DQ  =         0.000000
siesta: Emadel  =         0.000000
siesta: Emeta   =         0.000000
siesta: Emolmec =         0.000000
siesta: Ekinion =         0.000000
siesta: Eharris =     -2714.031355
siesta: Etot    =     -2714.031355
siesta: FreeEng =     -2714.031675

siesta: Final energy (eV):
siesta:  Band Struct. =    -250.027484
siesta:       Kinetic =    1909.084583
siesta:       Hartree =     308.792255
siesta:       Edftu   =       0.000000
siesta:       Eso     =       0.000000
siesta:    Ext. field =       0.000000
siesta:         Exch. =    -373.842001
siesta:         Corr. =     -50.826820
siesta:   Exch.-corr. =    -424.668820
siesta:  Ion-electron =   -2220.937252
siesta:       Ion-ion =   -2286.302120
siesta:       Ekinion =       0.000000
siesta:         Total =   -2714.031355
siesta:         Fermi =      -3.417787

siesta: Stress tensor (static) (eV/Ang**3):
siesta:     0.016368   -0.000000    0.000000
siesta:    -0.000000    0.016368    0.000000
siesta:     0.000000    0.000000    0.032907

siesta: Cell volume =         52.983633 Ang**3

siesta: Pressure (static):
siesta:                Solid            Molecule  Units
siesta:          -0.00023831         -0.00023831  Ry/Bohr**3
siesta:          -0.02188104         -0.02188104  eV/Ang**3
siesta:         -35.05766548        -35.05766559  kBar
(Free)E+ p_basis*V_orbitals  =       -2711.952904
(Free)Eharris+ p_basis*V_orbitals  =       -2711.952904

cite: Please see "ts_au_elec_111_abc.bib" for an exhaustive BiBTeX file.
cite: Please clearly indicate Siesta version in published work: 5.0.0-alpha-56-g943f9ccc9
cite: This calculation has made use of the following articles
cite: which are encouraged to be cited in a published work.
        Primary SIESTA paper
          DOI: www.doi.org/10.1088/0953-8984/14/11/302


>> End of run:  29-APR-2022   9:15:35
Job completed
