Siesta Version  : 5.0.0-alpha-56-g943f9ccc9
Architecture    : x86_64-linux-gcc
Compiler version: GNU Fortran (GCC) 11.2.0
Compiler flags  : mpifort -m64 -fPIC -O3 -ftree-vectorize -fexpensive-optimizations -funroll-loops -fprefetch-loop-arrays -fgraphite -fipa-icf -fipa-pure-const -march=native -fschedule-fusion -fselective-scheduling -fstack-arrays -fmax-stack-var-size=10000 -fipa-sra -fipa-cp -fcheck=recursion,array-temps -fno-second-underscore -Wrealloc-lhs -Wrealloc-lhs-all -fallow-argument-mismatch -fcheck-array-temporaries -Warray-temporaries -fcheck=array-temps
PP flags        : -DSIESTA__DEV_INFO -DSIESTA__FLOOK -DSIESTA__METIS -DSIESTA__FFTW -DTS_PVT_METIS -DSIESTA__MRRR -DSIESTA__SCALAPACK_RESET -DMPI -DFC_HAVE_FLUSH -DFC_HAVE_ABORT -DCDF -DGRID_DP -DMPI_TIMING -DTRANSIESTA_TIMING -DTBTRANS_TIMING -D1 -DNCDF_PARALLEL -DNCDF -DNCDF_4 -DSCALAPACK_DEBUG -D_DIAG_WORK -DSIESTA__DIAG_2STAGE -DSIESTA__ELPA
Libraries       : libncdf.a libfdict.a  -lzmumps -lmumps_common -lpord -lparmetis -lmetis -lesmumps -lscotch -lscotcherr -L/opt/gnu/11.2.0/elpa/2020.05.001/lib -Wl,-rpath=/opt/gnu/11.2.0/elpa/2020.05.001/lib -lelpa -L/opt/gnu/11.2.0/scalapack-debug/2.1.0/lib -Wl,-rpath=/opt/gnu/11.2.0/scalapack-debug/2.1.0/lib -lscalapack  -L/opt/gnu/11.2.0/openblas/0.3.18/lib -Wl,-rpath=/opt/gnu/11.2.0/openblas/0.3.18/lib -lopenblas -L/home/nicpa/codes/flook/obj -lflookall -ldl -l:libnetcdff.so  -m64 -fPIC -O3 -ftree-vectorize -fexpensive-optimizations -funroll-loops -fprefetch-loop-arrays -fgraphite -fipa-icf -fipa-pure-const -march=native -fschedule-fusion -fselective-scheduling -fstack-arrays -fmax-stack-var-size=10000 -fipa-sra -fipa-cp -fcheck=recursion,array-temps -fno-second-underscore -Wrealloc-lhs -Wrealloc-lhs-all -fallow-argument-mismatch -fcheck-array-temporaries -Warray-temporaries -fcheck=array-temps -L/opt/gnu/11.2.0/fftw/3.3.10/lib -Wl,-rpath=/opt/gnu/11.2.0/fftw/3.3.10/lib -lfftw3
Parallelisations: MPI
NetCDF support
NetCDF-4 support
NetCDF-4 MPI-IO support
METIS ordering support
Lua support

Runtime information:
* Directory : /home/nicpa/siesta/siesta/Obj/Tests/TranSiesta-TBTrans/ts_au_100/work/Elec_ts_au_100_elec_3x3
* Running on 6 nodes in parallel.
>> Start of run:  29-APR-2022  10:03:33

                           *********************** 
                           *  WELCOME TO SIESTA  * 
                           *********************** 

reinit: Reading from file ts_au_100_elec_3x3.fdf

reinit: -----------------------------------------------------------------------
reinit: System Name: Au electrode (100
reinit: -----------------------------------------------------------------------
reinit: System Label: ts_au_100_elec_3x3
reinit: -----------------------------------------------------------------------

initatom: Reading input for the pseudopotentials and atomic orbitals ----------
Species number:   1 Atomic number:   79 Label: Au


 ---- Processing specs for species: Au
Ground state valence configuration:   6s01  5d10
Reading pseudopotential information in formatted form from Au.psf

---- Pseudopotential check for Au

Pseudopotential generated from a fully relativistic atomic calculation
There are spin-orbit semi-local pseudopotentials available

Pseudized shells:
6s( 1.00) rc: 2.29
6p( 0.00) rc: 3.14
5d(10.00) rc: 1.20
5f( 0.00) rc: 3.14
Valence configuration for ps generation: (assumed as above)
For Au, standard SIESTA heuristics set lmxkb to 3
 (one more than the basis l, including polarization orbitals).
Use PS.lmax or PS.KBprojectors blocks to override.

<basis_specs>
===============================================================================
Au                   Z=  79    Mass=  196.97        Charge= 0.17977+309
Lmxo=2 Lmxkb= 3    BasisType=split      Semic=F
L=0  Nsemic=0  Cnfigmx=6
          i=1  nzeta=1  polorb=1  (6s)  (to be polarized perturbatively)
            splnorm:   0.15000    
               vcte:    0.0000    
               rinn:    0.0000    
               qcoe:    0.0000    
               qyuk:    0.0000    
               qwid:   0.10000E-01
                rcs:    0.0000    
            lambdas:    1.0000    
L=1  Nsemic=0  Cnfigmx=6
          i=1  nzeta=0  polorb=0  (6p)  (perturbative polarization orbital) (from 6s)
L=2  Nsemic=0  Cnfigmx=5
          i=1  nzeta=1  polorb=0  (5d)
            splnorm:   0.15000    
               vcte:    0.0000    
               rinn:    0.0000    
               qcoe:    0.0000    
               qyuk:    0.0000    
               qwid:   0.10000E-01
                rcs:    0.0000    
            lambdas:    1.0000    
-------------------------------------------------------------------------------
L=0  Nkbl=1  erefs: 0.17977+309
L=1  Nkbl=1  erefs: 0.17977+309
L=2  Nkbl=1  erefs: 0.17977+309
L=3  Nkbl=1  erefs: 0.17977+309
===============================================================================
</basis_specs>

atom: Called for Au                    (Z =  79)

read_vps: Pseudopotential generation method:
read_vps: ATM3      Troullier-Martins                       
Valence charge in pseudo generation:   11.00000

read_vps: Pseudopotential includes a core correction:
read_vps: Pseudo-core for xc-correction

xc_check: Exchange-correlation functional:
xc_check: GGA Perdew, Burke & Ernzerhof 1996
V l=0 = -2*Zval/r beyond r=  2.9833
V l=1 = -2*Zval/r beyond r=  3.1363
V l=2 = -2*Zval/r beyond r=  2.9833
V l=3 = -2*Zval/r beyond r=  3.1363
All V_l potentials equal beyond r=  3.0973
This should be close to max(r_c) in ps generation
All pots = -2*Zval/r beyond r=  3.1363
Using small-core scheme (local charge) for Vlocal

VLOCAL_FROM_CHLOCAL: 99.0% of the norm of Vloc inside      4.525 Ry
VLOCAL_FROM_CHLOCAL: 99.9% of the norm of Vloc inside     10.312 Ry
atom: Maximum radius for chlocal:    3.73611
atom: Maximum radius for r*vlocal+2*Zval:    3.46615

KBgen: Kleinman-Bylander projectors: 
GHOST: No ghost state for L =  0
   l= 0   rc=  3.423088   el= -0.421435   Ekb=  5.114239   kbcos=  0.182513
GHOST: No ghost state for L =  1
   l= 1   rc=  3.553892   el= -0.058080   Ekb=  1.612319   kbcos=  0.221966
GHOST: No ghost state for L =  2
   l= 2   rc=  3.256140   el= -0.508574   Ekb= -6.472599   kbcos= -0.707183
GHOST: No ghost state for L =  3
   l= 3   rc=  3.643860   el=  0.003083   Ekb= -1.026026   kbcos= -0.026089

KBgen: Total number of Kleinman-Bylander projectors:  16
atom: -------------------------------------------------------------------------

atom: SANKEY-TYPE ORBITALS:

SPLIT: Orbitals with angular momentum L= 0

SPLIT: Basis orbitals for state 6s

SPLIT: PAO cut-off radius determined from an
SPLIT: energy shift=  0.005000 Ry

   izeta = 1
                 lambda =    1.000000
                     rc =    7.246712
                 energy =   -0.416422
                kinetic =    0.363232
    potential(screened) =   -0.779654
       potential(ionic) =   -8.332754

SPLIT: Orbitals with angular momentum L= 2

SPLIT: Basis orbitals for state 5d

SPLIT: PAO cut-off radius determined from an
SPLIT: energy shift=  0.005000 Ry

   izeta = 1
                 lambda =    1.000000
                     rc =    5.106662
                 energy =   -0.503595
                kinetic =    4.974612
    potential(screened) =   -5.478207
       potential(ionic) =  -15.919605

POLgen: Perturbative polarization orbital with L=  1

POLgen: Polarization orbital for state 6s

   izeta = 1
                     rc =    7.246712
                 energy =   -0.086468
                kinetic =    0.638528
    potential(screened) =   -0.724996
       potential(ionic) =   -7.799440
atom: Total number of Sankey-type orbitals:  9

atm_pop: Valence configuration (for local Pseudopot. screening):
 6s( 1.00)                                                            
 6p( 0.00)                                                            
 5d(10.00)                                                            
Vna: chval, zval:   11.00000  11.00000

Vna:  Cut-off radius for the neutral-atom potential:   7.246712
comcore: Pseudo-core radius Rcore=  4.027091

atom: _________________________________________________________________________

prinput: Basis input 
* WARNING: This information might be incomplete!!!
----------------------------------------------------------

PAO.BasisType split     

%block ChemicalSpeciesLabel
    1   79 Au                      # Species index, atomic number, species label
%endblock ChemicalSpeciesLabel

%block PAO.Basis                 # Define Basis set
# WARNING: This information might be incomplete!!!
Au                    2                    # Species label, number of l-shells
 n=6   0   1 P   1                   # n, l, Nzeta, Polarization, NzetaPol
   7.247   
   1.000   
 n=5   2   1                         # n, l, Nzeta 
   5.107   
   1.000   
%endblock PAO.Basis

prinput: ----------------------------------------------------------------------

Dumping basis to NetCDF file Au.ion.nc
coor:   Atomic-coordinates input format  =     Cartesian coordinates
coor:                                          (in Angstroms)

siesta: WARNING: XV file not found

siesta: Atomic coordinates (Bohr) and species
siesta:      0.00000   0.00000   0.00000  1        1
siesta:      5.44944   0.00000   0.00000  1        2
siesta:     10.89889   0.00000   0.00000  1        3
siesta:      0.00000   5.44944   0.00000  1        4
siesta:      5.44944   5.44944   0.00000  1        5
siesta:     10.89889   5.44944   0.00000  1        6
siesta:      0.00000  10.89889   0.00000  1        7
siesta:      5.44944  10.89889   0.00000  1        8
siesta:     10.89889  10.89889   0.00000  1        9
siesta:      2.72472   2.72472   3.85334  1       10
siesta:      8.17416   2.72472   3.85334  1       11
siesta:     13.62361   2.72472   3.85334  1       12
siesta:      2.72472   8.17416   3.85334  1       13
siesta:      8.17416   8.17416   3.85334  1       14
siesta:     13.62361   8.17416   3.85334  1       15
siesta:      2.72472  13.62361   3.85334  1       16
siesta:      8.17416  13.62361   3.85334  1       17
siesta:     13.62361  13.62361   3.85334  1       18
siesta:      0.00000   0.00000   7.70668  1       19
siesta:      5.44944   0.00000   7.70668  1       20
siesta:     10.89889   0.00000   7.70668  1       21
siesta:      0.00000   5.44944   7.70668  1       22
siesta:      5.44944   5.44944   7.70668  1       23
siesta:     10.89889   5.44944   7.70668  1       24
siesta:      0.00000  10.89889   7.70668  1       25
siesta:      5.44944  10.89889   7.70668  1       26
siesta:     10.89889  10.89889   7.70668  1       27
siesta:      2.72472   2.72472  11.56003  1       28
siesta:      8.17416   2.72472  11.56003  1       29
siesta:     13.62361   2.72472  11.56003  1       30
siesta:      2.72472   8.17416  11.56003  1       31
siesta:      8.17416   8.17416  11.56003  1       32
siesta:     13.62361   8.17416  11.56003  1       33
siesta:      2.72472  13.62361  11.56003  1       34
siesta:      8.17416  13.62361  11.56003  1       35
siesta:     13.62361  13.62361  11.56003  1       36

siesta: System type = bulk      

initatomlists: Number of atoms, orbitals, and projectors:     36   324   576

coxmol: Writing XMOL coordinates into file ts_au_100_elec_3x3.xyz                                                                                                                                                                                                              

siesta: ******************** Simulation parameters ****************************
siesta:
siesta: The following are some of the parameters of the simulation.
siesta: A complete list of the parameters used, including default values,
siesta: can be found in file out.fdf
siesta:
redata: Spin configuration                          = none
redata: Number of spin components                   = 1
redata: Time-Reversal Symmetry                      = T
redata: Spin spiral                                 = F
redata: Long output                                 =   F
redata: Number of Atomic Species                    =        1
redata: Charge density info will appear in .RHO file
redata: Write Mulliken Pop.                         = Atomic and Orbital charges
redata: Matel table size (NRTAB)                    =     1024
redata: Mesh Cutoff                                 =   300.0000 Ry
redata: Net charge of the system                    =     0.0000 |e|
redata: Min. number of SCF Iter                     =        0
redata: Max. number of SCF Iter                     =      300
redata: SCF convergence failure will abort job
redata: SCF mix quantity                            = Hamiltonian
redata: Mix DM or H after convergence               =   F
redata: Recompute H after scf cycle                 =   F
redata: Mix DM in first SCF step                    =   T
redata: Write Pulay info on disk                    =   F
redata: New DM Occupancy tolerance                  = 0.000000000001
redata: No kicks to SCF
redata: DM Mixing Weight for Kicks                  =     0.5000
redata: Require Harris convergence for SCF          =   F
redata: Harris energy tolerance for SCF             =     0.000100 eV
redata: Require DM convergence for SCF              =   T
redata: DM tolerance for SCF                        =     0.000100
redata: Require EDM convergence for SCF             =   F
redata: EDM tolerance for SCF                       =     0.001000 eV
redata: Require H convergence for SCF               =   T
redata: Hamiltonian tolerance for SCF               =     0.001000 eV
redata: Require (free) Energy convergence for SCF   =   F
redata: (free) Energy tolerance for SCF             =     0.000100 eV
redata: Using Saved Data (generic)                  =   F
redata: Use continuation files for DM               =   T
redata: Neglect nonoverlap interactions             =   F
redata: Method of Calculation                       = Diagonalization
redata: Electronic Temperature                      =   299.9869 K
redata: Fix the spin of the system                  =   F
redata: Max. number of TDED Iter                    =        1
redata: Number of TDED substeps                     =        3
redata: Dynamics option                             = Single-point calculation
mix.SCF: Pulay mixing                            = Pulay
mix.SCF:    Variant                              = stable
mix.SCF:    History steps                        = 5
mix.SCF:    Linear mixing weight                 =     0.050000
mix.SCF:    Mixing weight                        =     0.050000
mix.SCF:    SVD condition                        = 0.1000E-07
redata: Save all siesta data in one NC              =   F
redata: ***********************************************************************

%block SCF.Mixers
  Pulay
%endblock SCF.Mixers

%block SCF.Mixer.Pulay
  # Mixing method
  method pulay
  variant stable

  # Mixing options
  weight 0.0500
  weight.linear 0.0500
  history 5
%endblock SCF.Mixer.Pulay

DM_history_depth set to one: no extrapolation allowed by default for geometry relaxation
Size of DM history Fstack: 1
Total number of electrons:   396.000000
Total ionic charge:   396.000000

* ProcessorY, Blocksize:    3  24


* Orbital distribution balance (max,min):    72    48

k-point displ. along   1 input, could be:     0.00    0.50
k-point displ. along   2 input, could be:     0.00    0.50
k-point displ. along   3 input, could be:     0.00    0.50
 Kpoints in:           24 . Kpoints trimmed:           24

siesta: k-grid: Number of k-points =        24
siesta: k-points from Monkhorst-Pack grid
siesta: k-cutoff (effective) =     8.651 Ang
siesta: k-point supercell and displacements
siesta: k-grid:    2   0   0      0.000
siesta: k-grid:    0   2   0      0.000
siesta: k-grid:    0   0  10      0.000

diag: Algorithm                                     = D&C
diag: Parallel over k                               =   F
diag: Use parallel 2D distribution                  =   T
diag: Parallel block-size                           = 24
diag: Parallel distribution                         =     2 x     3
diag: Used triangular part                          = Lower
diag: Absolute tolerance                            =  0.100E-15
diag: Orthogonalization factor                      =  0.100E-05
diag: Memory factor                                 =  1.0000

superc: Internal auxiliary supercell:     3 x     3 x     3  =      27
superc: Number of atoms, orbitals, and projectors:    972   8748  15552


ts: **************************************************************
ts: Save H and S matrices                           =    T
ts: Save DM and EDM matrices                        =    T
ts: Only save the overlap matrix S                  =    F
ts: **************************************************************

************************ Begin: TS CHECKS AND WARNINGS ************************
************************ End: TS CHECKS AND WARNINGS **************************


                     ====================================
                        Single-point calculation
                     ====================================

superc: Internal auxiliary supercell:     3 x     3 x     3  =      27
superc: Number of atoms, orbitals, and projectors:    972   8748  15552

outcell: Unit cell vectors (Ang):
        8.651160    0.000000    0.000000
        0.000000    8.651160    0.000000
        0.000000    0.000000    8.156400

outcell: Cell vector modules (Ang)   :    8.651160    8.651160    8.156400
outcell: Cell angles (23,13,12) (deg):     90.0000     90.0000     90.0000
outcell: Cell volume (Ang**3)        :    610.4459
<dSpData1D:S at geom step 0
  <sparsity:sparsity for geom step 0
    nrows_g=324 nrows=72 sparsity=.9335 nnzs=97992, refcount: 7>
  <dData1D:(new from dSpData1D) n=97992, refcount: 1>
refcount: 1>
new_DM -- step:     1
Initializing Density Matrix...

Attempting to read DM from file... Failed...
DM filled with atomic data:
<dSpData2D:DM initialized from atoms
  <sparsity:sparsity for geom step 0
    nrows_g=324 nrows=72 sparsity=.9335 nnzs=97992, refcount: 8>
  <dData2D:DM n=97992 m=1, refcount: 1>
refcount: 1>
No. of atoms with KB's overlaping orbs in proc 0. Max # of overlaps:     188     267

InitMesh: MESH = 96 x 96 x 90 = 829440
InitMesh: (bp) =    48 x    48 x    45 =      103680
InitMesh: Mesh cutoff (required, used) =   300.000   336.504 Ry
New grid distribution [1]: sub = 2
           1       1:   48    1:   16    1:   23
           2       1:   48    1:   16   24:   45
           3       1:   48   17:   32    1:   23
           4       1:   48   17:   32   24:   45
           5       1:   48   33:   48    1:   23
           6       1:   48   33:   48   24:   45
ExtMesh (bp) on 0 =   136 x   104 x   111 =     1569984
New grid distribution [2]: sub = 2
           1       1:   16    1:   24    1:   45
           2      17:   48    1:   24   23:   45
           3      17:   48    1:   24    1:   22
           4      17:   48   25:   48   24:   45
           5      17:   48   25:   48    1:   23
           6       1:   16   25:   48    1:   45
New grid distribution [3]: sub = 2
           1      17:   48    1:   24    1:   23
           2       1:   16    1:   24    1:   45
           3      17:   48    1:   24   24:   45
           4      17:   48   25:   48   24:   45
           5      17:   48   25:   48    1:   23
           6       1:   16   25:   48    1:   45
Setting up quadratic distribution...
ExtMesh (bp) on 0 =   104 x   112 x   133 =     1549184
PhiOnMesh: Number of (b)points on node 0 =                17280
PhiOnMesh: nlist on node 0 =              1467683
cdiag-debug: jobz=V, algo= 1, Node=    1, work=       11520, rwork=       57349, iwork=        2294
cdiag-debug: jobz=V, algo= 1, Node=    2, work=       11520, rwork=       51301, iwork=        2294
cdiag-debug: jobz=V, algo= 1, Node=    3, work=       11520, rwork=       59077, iwork=        2294
cdiag-debug: jobz=V, algo= 1, Node=    4, work=       11520, rwork=       53461, iwork=        2294
cdiag-debug: jobz=V, algo= 1, Node=    5, work=       11520, rwork=       47845, iwork=        2294
cdiag-debug: jobz=V, algo= 1, Node=    0, work=       11520, rwork=       63397, iwork=        2294

stepf: Fermi-Dirac step function

siesta: Program's energy decomposition (eV):
siesta: Ebs     =     -3058.057182
siesta: Eions   =     34209.253345
siesta: Ena     =       120.841134
siesta: Ekin    =     23046.816378
siesta: Enl     =    -14841.494865
siesta: Eso     =         0.000000
siesta: Edftu   =         0.000000
siesta: DEna    =        46.355499
siesta: DUscf   =        27.473871
siesta: DUext   =         0.000000
siesta: Ex      =    -24293.594454
siesta: Ec      =     -1491.471983
siesta: Exc     =    -25785.066437
siesta: eta*DQ  =         0.000000
siesta: Emadel  =         0.000000
siesta: Emeta   =         0.000000
siesta: Emolmec =         0.000000
siesta: Ekinion =         0.000000
siesta: Eharris =    -51547.792068
siesta: Etot    =    -51594.327764
siesta: FreeEng =    -51594.367432

        iscf     Eharris(eV)        E_KS(eV)     FreeEng(eV)     dDmax    Ef(eV) dHmax(eV)
   scf:    1   -51547.792068   -51594.327764   -51594.367432  0.248106 -1.796460  1.826415
timer: Routine,Calls,Time,% = IterSCF        1       3.992  48.10
   scf:    2   -51596.255294   -51595.297573   -51595.335509  0.005367 -1.873497  1.692517
   scf:    3   -51604.927056   -51600.983977   -51601.016442  0.061630 -2.788703  0.024400
   scf:    4   -51600.948177   -51600.968909   -51601.001372  0.003440 -2.842640  0.080957
   scf:    5   -51600.995297   -51600.983543   -51601.016017  0.002171 -2.813347  0.016659
   scf:    6   -51600.983907   -51600.983728   -51601.016204  0.000098 -2.812491  0.014705
   scf:    7   -51600.984382   -51600.984071   -51601.016549  0.000233 -2.809136  0.007599
   scf:    8   -51600.984295   -51600.984202   -51601.016682  0.000241 -2.805608  0.000133
   scf:    9   -51600.984203   -51600.984203   -51601.016683  0.000005 -2.805558  0.000002

SCF Convergence by DM+H criterion
max |DM_out - DM_in|         :     0.0000050353
max |H_out - H_in|      (eV) :     0.0000016303
SCF cycle converged after 9 iterations

Using DM_out to compute the final energy and forces
No. of atoms with KB's overlaping orbs in proc 0. Max # of overlaps:     188     267

siesta: E_KS(eV) =           -51600.9842

siesta: E_KS - E_eggbox =    -51600.9842

siesta: Atomic forces (eV/Ang):
----------------------------------------
   Tot    0.000000    0.000000   -0.000000
----------------------------------------
   Max    0.000000
   Res    0.000000    sqrt( Sum f_i^2 / 3N )
----------------------------------------
   Max    0.000000    constrained

Stress tensor Voigt[x,y,z,yz,xz,xy] (kbar):     -218.55     -218.55     -201.19        0.00        0.00       -0.00
(Free)E + p*V (eV/cell)   -51519.9517
Target enthalpy (eV/cell)   -51601.0167

mulliken: Atomic and Orbital Populations:

Species: Au                  
Atom  Qatom  Qorb
               6s      5dxy    5dyz    5dz2    5dxz    5dx2-y2 6Ppy    6Ppz    
               6Ppx    
   1 11.000   0.978   1.933   1.889   1.940   1.889   1.894   0.158   0.161
              0.158
   2 11.000   0.978   1.933   1.889   1.940   1.889   1.894   0.158   0.161
              0.158
   3 11.000   0.978   1.933   1.889   1.940   1.889   1.894   0.158   0.161
              0.158
   4 11.000   0.978   1.933   1.889   1.940   1.889   1.894   0.158   0.161
              0.158
   5 11.000   0.978   1.933   1.889   1.940   1.889   1.894   0.158   0.161
              0.158
   6 11.000   0.978   1.933   1.889   1.940   1.889   1.894   0.158   0.161
              0.158
   7 11.000   0.978   1.933   1.889   1.940   1.889   1.894   0.158   0.161
              0.158
   8 11.000   0.978   1.933   1.889   1.940   1.889   1.894   0.158   0.161
              0.158
   9 11.000   0.978   1.933   1.889   1.940   1.889   1.894   0.158   0.161
              0.158
  10 11.000   0.978   1.933   1.889   1.940   1.889   1.894   0.158   0.161
              0.158
  11 11.000   0.978   1.933   1.889   1.940   1.889   1.894   0.158   0.161
              0.158
  12 11.000   0.978   1.933   1.889   1.940   1.889   1.894   0.158   0.161
              0.158
  13 11.000   0.978   1.933   1.889   1.940   1.889   1.894   0.158   0.161
              0.158
  14 11.000   0.978   1.933   1.889   1.940   1.889   1.894   0.158   0.161
              0.158
  15 11.000   0.978   1.933   1.889   1.940   1.889   1.894   0.158   0.161
              0.158
  16 11.000   0.978   1.933   1.889   1.940   1.889   1.894   0.158   0.161
              0.158
  17 11.000   0.978   1.933   1.889   1.940   1.889   1.894   0.158   0.161
              0.158
  18 11.000   0.978   1.933   1.889   1.940   1.889   1.894   0.158   0.161
              0.158
  19 11.000   0.978   1.933   1.889   1.940   1.889   1.894   0.158   0.161
              0.158
  20 11.000   0.978   1.933   1.889   1.940   1.889   1.894   0.158   0.161
              0.158
  21 11.000   0.978   1.933   1.889   1.940   1.889   1.894   0.158   0.161
              0.158
  22 11.000   0.978   1.933   1.889   1.940   1.889   1.894   0.158   0.161
              0.158
  23 11.000   0.978   1.933   1.889   1.940   1.889   1.894   0.158   0.161
              0.158
  24 11.000   0.978   1.933   1.889   1.940   1.889   1.894   0.158   0.161
              0.158
  25 11.000   0.978   1.933   1.889   1.940   1.889   1.894   0.158   0.161
              0.158
  26 11.000   0.978   1.933   1.889   1.940   1.889   1.894   0.158   0.161
              0.158
  27 11.000   0.978   1.933   1.889   1.940   1.889   1.894   0.158   0.161
              0.158
  28 11.000   0.978   1.933   1.889   1.940   1.889   1.894   0.158   0.161
              0.158
  29 11.000   0.978   1.933   1.889   1.940   1.889   1.894   0.158   0.161
              0.158
  30 11.000   0.978   1.933   1.889   1.940   1.889   1.894   0.158   0.161
              0.158
  31 11.000   0.978   1.933   1.889   1.940   1.889   1.894   0.158   0.161
              0.158
  32 11.000   0.978   1.933   1.889   1.940   1.889   1.894   0.158   0.161
              0.158
  33 11.000   0.978   1.933   1.889   1.940   1.889   1.894   0.158   0.161
              0.158
  34 11.000   0.978   1.933   1.889   1.940   1.889   1.894   0.158   0.161
              0.158
  35 11.000   0.978   1.933   1.889   1.940   1.889   1.894   0.158   0.161
              0.158
  36 11.000   0.978   1.933   1.889   1.940   1.889   1.894   0.158   0.161
              0.158

mulliken: Qtot =      396.000

coxmol: Writing XMOL coordinates into file ts_au_100_elec_3x3.xyz                                                                                                                                                                                                              

siesta: Eigenvalues (eV):
  ik is       eps
   1  1  -12.4724  -10.5019  -10.5019  -10.5019  -10.5019  -10.3593  -10.3593  -10.1918  -10.1918  -10.1918
         -10.1918  -10.1917  -10.1917  -10.1917  -10.1917  -10.0841   -9.8930   -9.8930   -9.8930   -9.8930
   -9.8080   -9.3642   -9.3642   -9.3642   -9.3642   -9.3597   -9.3597   -9.3597   -9.3597   -9.1945
   -9.1945   -9.1945   -9.1945   -9.1010   -9.1010   -9.1010   -9.1010   -8.8627   -8.8627   -8.8007
   -8.8007   -8.8007   -8.8007   -8.8007   -8.8007   -8.8007   -8.8007   -8.3965   -8.3965   -8.3965
   -8.3965   -8.3178   -8.3178   -8.3178   -8.3178   -8.3120   -8.3120   -8.3120   -8.3120   -8.3119
   -8.3119   -8.3119   -8.3119   -8.1891   -8.1891   -8.1891   -8.1891   -8.1891   -8.1891   -8.1891
   -8.1891   -7.8033   -7.8033   -7.8033   -7.8033   -7.8030   -7.8030   -7.8030   -7.8030   -7.7442
   -7.7442   -7.7388   -7.5379   -7.5379   -7.5379   -7.5379   -7.5368   -7.5368   -7.5368   -7.5368
   -7.5367   -7.5367   -7.5367   -7.5367   -7.4474   -7.4474   -7.4474   -7.4474   -7.0064   -7.0064
   -7.0064   -7.0064   -7.0017   -7.0017   -7.0017   -7.0017   -6.9741   -6.9740   -6.7867   -6.7867
   -6.7867   -6.7867   -6.6465   -6.6465   -6.6465   -6.6465   -6.6464   -6.6464   -6.6464   -6.6464
   -6.5067   -6.5067   -6.5067   -6.5067   -6.4769   -6.4769   -6.4769   -6.4769   -6.4769   -6.4769
   -6.4769   -6.4769   -6.3280   -6.3280   -6.3280   -6.3280   -6.2096   -6.2083   -5.9151   -5.9151
   -5.9151   -5.9151   -5.8724   -5.8724   -5.8724   -5.8724   -5.6896   -5.6896   -5.6896   -5.6896
   -5.6853   -5.6853   -5.6853   -5.6853   -5.6588   -5.6588   -5.6588   -5.6588   -5.6588   -5.6588
   -5.6588   -5.6588   -5.6463   -5.6462   -5.4429   -5.4429   -5.4429   -5.4429   -5.3430   -5.3430
   -5.3430   -5.3430   -5.2331   -5.2331   -5.2331   -5.2331   -5.0884   -5.0884   -5.0884   -5.0884
   -5.0883   -5.0883   -5.0883   -5.0883   -5.0192   -4.6427   -4.6427   -4.6417   -4.6417   -4.6417
   -4.6417   -4.4787   -4.4787   -4.4787   -4.4787   -4.4784   -4.4784   -4.4784   -4.4784   -1.6477
   -1.6396   -1.6396   -1.6396   -1.6396   -1.6395   -1.6395   -1.6395   -1.6395   -0.0559   -0.0559
   -0.0559   -0.0559    1.6814    1.6814    1.6814    1.6814    3.7094    3.7094    3.7094    3.7094
    3.7169    3.7169    3.7169    3.7169    3.7170    3.7170    3.7170    3.7170    4.1440    4.1440
    4.1440    4.1440    4.2825    6.0689    6.0689    6.0689    6.0689    6.3439    6.3439    6.3439
    6.3439    6.3748    6.3748    6.3748    6.3748    6.3748    6.3748    6.3748    6.3748    6.8781
    6.8781    6.8781    6.8781    6.8782    6.8782    6.8782    6.8782    8.5070    8.5070    8.5070
    8.5070    9.2493    9.2493   12.2906   12.2906   12.2906   12.2906   12.2939   12.2939   12.2939
   12.2939   14.3985   14.3985   14.3985   14.3985   14.5064   14.5064   14.5064   14.5064   14.5489
   14.5489   14.5489   14.5489   14.6255   14.6255   14.6255   14.6255   15.5245   15.5245   15.5246
   15.5246   15.7729   15.7729   15.7729   15.7729   15.7730   15.7730   15.7730   15.7730   17.9927
   17.9927   17.9927   17.9927   17.9928   17.9928   17.9928   17.9928   19.6533   19.6533   19.6533
   19.6533   19.6535   19.6535   19.6535   19.6535   20.6766   20.6767   22.6775   22.6775   22.6775
   22.6775   23.6929   23.6937   23.6937
   2  1  -11.9303  -11.9303  -10.3515  -10.3515  -10.1442  -10.1442  -10.1442  -10.1442  -10.0837  -10.0837
         -10.0836  -10.0836   -9.7827   -9.7827   -9.7826   -9.7826   -9.7596   -9.7596   -9.6608   -9.6608
   -9.6608   -9.6608   -9.6607   -9.6607   -9.6607   -9.6607   -9.5254   -9.5254   -9.5254   -9.5254
   -9.3940   -9.3940   -9.1199   -9.1199   -8.8619   -8.8619   -8.8619   -8.8619   -8.8136   -8.8136
   -8.8135   -8.8135   -8.7714   -8.7714   -8.7714   -8.7714   -8.7119   -8.7119   -8.7119   -8.7119
   -8.5100   -8.5100   -8.5100   -8.5100   -8.3662   -8.3662   -8.3662   -8.3662   -8.2843   -8.2843
   -8.2024   -8.2024   -8.2024   -8.2024   -8.0122   -8.0122   -8.0122   -8.0122   -8.0121   -8.0121
   -8.0121   -8.0121   -7.9629   -7.9629   -7.9010   -7.9010   -7.8139   -7.8139   -7.8139   -7.8139
   -7.7842   -7.7841   -7.7835   -7.7832   -7.6062   -7.6062   -7.6060   -7.6060   -7.5481   -7.5481
   -7.5028   -7.5028   -7.4678   -7.4678   -7.4678   -7.4678   -7.2603   -7.2603   -7.2603   -7.2603
   -7.2603   -7.2603   -7.2603   -7.2603   -7.2321   -7.2321   -7.2321   -7.2321   -7.2320   -7.2320
   -7.2320   -7.2320   -6.9384   -6.9384   -6.9383   -6.9383   -6.8260   -6.8260   -6.5128   -6.5128
   -6.5128   -6.5128   -6.4622   -6.4622   -6.4622   -6.4622   -6.4240   -6.4240   -6.3011   -6.3011
   -6.3011   -6.3011   -6.2677   -6.2677   -6.2677   -6.2677   -6.2325   -6.2325   -6.1381   -6.1381
   -6.0954   -6.0954   -6.0954   -6.0954   -6.0314   -6.0314   -5.7523   -5.7523   -5.7523   -5.7523
   -5.7522   -5.7522   -5.7522   -5.7522   -5.5312   -5.5312   -5.5311   -5.5311   -5.4882   -5.4882
   -5.3835   -5.3835   -5.3834   -5.3834   -5.2999   -5.2999   -5.2999   -5.2999   -5.2503   -5.2503
   -5.2500   -5.2500   -5.0675   -5.0675   -5.0674   -5.0674   -4.9775   -4.9773   -4.9766   -4.9763
   -4.9728   -4.9728   -4.9728   -4.9728   -4.9574   -4.9574   -4.9574   -4.9574   -4.8575   -4.8575
   -3.7530   -3.7529   -3.1825   -3.1825   -3.1825   -3.1825   -3.1824   -3.1824   -3.1824   -3.1824
   -3.1541   -3.1541   -2.3502   -2.3502   -2.3501   -2.3501    0.3456    0.3457    0.4574    0.4574
    0.6989    0.6989    0.6989    0.6989    0.9731    0.9731    0.9731    0.9731    1.6239    1.6239
    1.6239    1.6239    3.5116    3.5116    4.4065    4.4065    4.4065    4.4065    4.4066    4.4066
    4.4066    4.4066    4.6775    4.6775    4.6775    4.6775    5.7995    5.7995    5.7995    5.7995
    6.6756    6.6756    7.2625    7.2625    7.2626    7.2626    8.5794    8.5795    8.6902    8.6905
    9.1075    9.1075    9.1079    9.1079    9.5960    9.5960    9.5960    9.5960   10.1124   10.1124
   10.1124   10.1124   10.3729   10.3729   10.3730   10.3730   10.7106   10.7106   10.8554   10.8554
   10.8554   10.8554   11.8142   11.8142   11.8143   11.8143   13.5742   13.5742   13.5742   13.5742
   13.5742   13.5742   13.5742   13.5742   13.9321   13.9321   13.9321   13.9321   14.1649   14.1649
   14.1649   14.1649   16.2687   16.2687   16.2688   16.2688   19.0164   19.0165   19.0173   19.0175
   19.2023   19.2023   19.2023   19.2023   19.2025   19.2025   19.2025   19.2025   19.2605   19.2605
   20.6649   20.6649   20.6651   20.6651   20.9216   20.9216   20.9216   20.9216   20.9675   20.9675
   20.9683   20.9683   23.6774   23.6774
   3  1  -11.9303  -11.9303  -10.3515  -10.3515  -10.1442  -10.1442  -10.1442  -10.1442  -10.0837  -10.0837
         -10.0836  -10.0836   -9.7827   -9.7827   -9.7826   -9.7826   -9.7596   -9.7596   -9.6608   -9.6608
   -9.6608   -9.6608   -9.6607   -9.6607   -9.6607   -9.6607   -9.5254   -9.5254   -9.5254   -9.5254
   -9.3940   -9.3940   -9.1199   -9.1199   -8.8619   -8.8619   -8.8619   -8.8619   -8.8136   -8.8136
   -8.8135   -8.8135   -8.7714   -8.7714   -8.7714   -8.7714   -8.7119   -8.7119   -8.7119   -8.7119
   -8.5100   -8.5100   -8.5100   -8.5100   -8.3662   -8.3662   -8.3662   -8.3662   -8.2843   -8.2843
   -8.2024   -8.2024   -8.2024   -8.2024   -8.0122   -8.0122   -8.0122   -8.0122   -8.0121   -8.0121
   -8.0121   -8.0121   -7.9629   -7.9629   -7.9010   -7.9010   -7.8139   -7.8139   -7.8139   -7.8139
   -7.7842   -7.7841   -7.7835   -7.7832   -7.6062   -7.6062   -7.6060   -7.6060   -7.5481   -7.5481
   -7.5028   -7.5028   -7.4678   -7.4678   -7.4678   -7.4678   -7.2603   -7.2603   -7.2603   -7.2603
   -7.2603   -7.2603   -7.2603   -7.2603   -7.2321   -7.2321   -7.2321   -7.2321   -7.2320   -7.2320
   -7.2320   -7.2320   -6.9384   -6.9384   -6.9383   -6.9383   -6.8260   -6.8260   -6.5128   -6.5128
   -6.5128   -6.5128   -6.4622   -6.4622   -6.4622   -6.4622   -6.4240   -6.4240   -6.3011   -6.3011
   -6.3011   -6.3011   -6.2677   -6.2677   -6.2677   -6.2677   -6.2325   -6.2325   -6.1381   -6.1381
   -6.0954   -6.0954   -6.0954   -6.0954   -6.0314   -6.0314   -5.7523   -5.7523   -5.7523   -5.7523
   -5.7522   -5.7522   -5.7522   -5.7522   -5.5312   -5.5312   -5.5311   -5.5311   -5.4882   -5.4882
   -5.3835   -5.3835   -5.3834   -5.3834   -5.2999   -5.2999   -5.2999   -5.2999   -5.2503   -5.2503
   -5.2500   -5.2500   -5.0675   -5.0675   -5.0674   -5.0674   -4.9775   -4.9773   -4.9766   -4.9763
   -4.9728   -4.9728   -4.9728   -4.9728   -4.9574   -4.9574   -4.9574   -4.9574   -4.8575   -4.8575
   -3.7530   -3.7529   -3.1825   -3.1825   -3.1825   -3.1825   -3.1824   -3.1824   -3.1824   -3.1824
   -3.1541   -3.1541   -2.3502   -2.3502   -2.3501   -2.3501    0.3456    0.3457    0.4574    0.4574
    0.6989    0.6989    0.6989    0.6989    0.9731    0.9731    0.9731    0.9731    1.6239    1.6239
    1.6239    1.6239    3.5116    3.5116    4.4065    4.4065    4.4065    4.4065    4.4066    4.4066
    4.4066    4.4066    4.6775    4.6775    4.6775    4.6775    5.7995    5.7995    5.7995    5.7995
    6.6756    6.6756    7.2625    7.2625    7.2626    7.2626    8.5794    8.5795    8.6902    8.6905
    9.1075    9.1075    9.1079    9.1079    9.5960    9.5960    9.5960    9.5960   10.1124   10.1124
   10.1124   10.1124   10.3729   10.3729   10.3730   10.3730   10.7106   10.7106   10.8554   10.8554
   10.8554   10.8554   11.8142   11.8142   11.8143   11.8143   13.5742   13.5742   13.5742   13.5742
   13.5742   13.5742   13.5742   13.5742   13.9321   13.9321   13.9321   13.9321   14.1649   14.1649
   14.1649   14.1649   16.2687   16.2687   16.2688   16.2688   19.0164   19.0165   19.0173   19.0175
   19.2023   19.2023   19.2023   19.2023   19.2025   19.2025   19.2025   19.2025   19.2605   19.2605
   20.6649   20.6649   20.6651   20.6651   20.9216   20.9216   20.9216   20.9216   20.9675   20.9675
   20.9683   20.9683   23.6774   23.6774
   4  1  -11.4079  -11.4079  -11.4079  -11.4079  -10.0849  -10.0848   -9.8559   -9.8559   -9.8559   -9.8559
          -9.8559   -9.8559   -9.8559   -9.8559   -9.8128   -9.8128   -9.6134   -9.6134   -9.6134   -9.6134
   -9.6133   -9.6133   -9.6133   -9.6133   -9.3638   -9.3638   -9.3638   -9.3638   -9.0966   -9.0966
   -9.0966   -9.0966   -9.0245   -9.0245   -9.0245   -9.0245   -9.0245   -9.0245   -9.0245   -9.0245
   -9.0141   -9.0140   -8.8071   -8.8071   -8.8071   -8.8071   -8.8070   -8.8070   -8.8070   -8.8070
   -8.5236   -8.5236   -8.5236   -8.5236   -8.5236   -8.5236   -8.5236   -8.5236   -8.3316   -8.3316
   -8.3316   -8.3316   -8.2190   -8.2190   -8.2190   -8.2190   -8.0968   -8.0968   -8.0968   -8.0968
   -8.0968   -8.0968   -8.0968   -8.0968   -8.0351   -8.0351   -8.0351   -8.0351   -8.0350   -8.0350
   -8.0350   -8.0350   -7.8213   -7.8213   -7.8213   -7.8213   -7.8210   -7.8210   -7.8210   -7.8210
   -7.3770   -7.3770   -7.3770   -7.3770   -7.3768   -7.3768   -7.3768   -7.3768   -7.1782   -7.1782
   -7.1782   -7.1782   -7.1731   -7.1731   -7.1731   -7.1731   -7.0102   -7.0102   -7.0102   -7.0102
   -6.8026   -6.8026   -6.8026   -6.8026   -6.5794   -6.5794   -6.5794   -6.5794   -6.5793   -6.5793
   -6.5793   -6.5793   -6.5669   -6.5669   -6.5669   -6.5669   -6.5668   -6.5668   -6.5668   -6.5668
   -6.4750   -6.4750   -6.4750   -6.4750   -6.4750   -6.4750   -6.4750   -6.4750   -6.3330   -6.3330
   -6.0368   -6.0368   -6.0368   -6.0368   -6.0366   -6.0366   -6.0366   -6.0366   -5.9358   -5.9358
   -5.9358   -5.9358   -5.9145   -5.9145   -5.9145   -5.9145   -5.7062   -5.7062   -5.7062   -5.7062
   -5.7062   -5.7062   -5.7062   -5.7062   -5.0558   -5.0558   -5.0558   -5.0558   -5.0556   -5.0556
   -5.0556   -5.0556   -5.0209   -5.0205   -4.6429   -4.6429   -4.6416   -4.6416   -4.6416   -4.6416
   -4.6391   -4.6391   -4.6375   -4.6375   -4.3123   -4.3123   -4.3123   -4.3123   -4.3121   -4.3121
   -4.3121   -4.3121   -2.9604   -2.9604   -2.9604   -2.9604   -2.9604   -2.9604   -2.9604   -2.9604
   -1.6456   -1.6456   -1.5202   -1.5202   -1.5202   -1.5202   -1.5201   -1.5201   -1.5201   -1.5201
    0.3659    0.3659    0.3659    0.3659    0.3660    0.3660    0.3660    0.3660    1.6792    1.6792
    1.6792    1.6792    3.5339    3.5340    3.7091    3.7091    3.7091    3.7091    4.0196    4.0196
    4.0197    4.0197    4.2826    4.2827    6.3456    6.3456    6.3456    6.3456    8.3321    8.3323
    8.4807    8.4807    8.4807    8.4807    8.4808    8.4808    8.4808    8.4808    8.5059    8.5059
    8.5059    8.5059    8.8279    8.8279    8.8279    8.8279    8.8282    8.8282    8.8282    8.8282
    9.2484    9.2487    9.2524    9.2524   11.0778   11.0778   11.0778   11.0778   11.0778   11.0778
   11.0778   11.0778   11.4150   11.4150   11.4150   11.4150   11.4150   11.4150   11.4150   11.4150
   15.8137   15.8137   15.8137   15.8137   15.8137   15.8137   15.8137   15.8137   16.1686   16.1686
   16.1686   16.1686   16.1686   16.1686   16.1686   16.1686   16.9837   16.9837   16.9837   16.9837
   16.9838   16.9838   16.9838   16.9838   19.2137   19.2137   19.2137   19.2137   19.2155   19.2155
   19.2155   19.2155   20.6420   20.6420   20.6420   20.6420   20.6422   20.6422   20.6422   20.6422
   23.2676   23.2676   23.2676   23.2676
   5  1  -12.4478  -10.6589  -10.5052  -10.5052  -10.5052  -10.5052  -10.2941  -10.2941  -10.2941  -10.2941
         -10.1203  -10.0759  -10.0724  -10.0724  -10.0724  -10.0724   -9.8710   -9.8710   -9.8710   -9.8710
   -9.7973   -9.3684   -9.3684   -9.3684   -9.3684   -9.3468   -9.3468   -9.3468   -9.3468   -9.2046
   -9.2046   -9.2046   -9.2046   -9.0743   -9.0743   -9.0743   -9.0743   -9.0211   -8.9427   -8.9427
   -8.9427   -8.9427   -8.7000   -8.6763   -8.6763   -8.6763   -8.6763   -8.4102   -8.4102   -8.4102
   -8.4102   -8.4011   -8.4011   -8.4011   -8.4011   -8.3891   -8.3891   -8.3891   -8.3891   -8.2763
   -8.2763   -8.2763   -8.2763   -8.2490   -8.2490   -8.2490   -8.2490   -7.9847   -7.9847   -7.9847
   -7.9847   -7.8961   -7.8961   -7.8961   -7.8961   -7.7539   -7.7313   -7.7313   -7.7231   -7.7231
   -7.7231   -7.7231   -7.5838   -7.5838   -7.5838   -7.5838   -7.5218   -7.5218   -7.5218   -7.5218
   -7.4651   -7.4651   -7.4651   -7.4651   -7.4484   -7.4484   -7.4484   -7.4484   -7.0886   -7.0886
   -7.0886   -7.0886   -7.0161   -7.0161   -7.0161   -7.0161   -7.0039   -6.8203   -6.7712   -6.7712
   -6.7712   -6.7712   -6.7300   -6.7300   -6.6845   -6.6845   -6.6845   -6.6845   -6.5515   -6.5515
   -6.5515   -6.5515   -6.5041   -6.5041   -6.5041   -6.5041   -6.3829   -6.3829   -6.3829   -6.3829
   -6.3743   -6.3743   -6.3743   -6.3743   -6.2694   -6.2694   -6.2266   -6.2017   -6.1755   -6.1755
   -6.1755   -6.1755   -5.9235   -5.9235   -5.9235   -5.9235   -5.7381   -5.6861   -5.6861   -5.6861
   -5.6861   -5.6830   -5.6830   -5.6830   -5.6830   -5.6195   -5.6195   -5.6195   -5.6195   -5.5527
   -5.4964   -5.4964   -5.4964   -5.4964   -5.4043   -5.4043   -5.4043   -5.4043   -5.2453   -5.2453
   -5.2453   -5.2453   -5.2371   -5.2371   -5.2371   -5.2371   -5.2089   -5.2089   -5.2089   -5.2089
   -5.0274   -5.0121   -5.0121   -5.0121   -5.0121   -4.9998   -4.9998   -4.9998   -4.9998   -4.6757
   -4.6757   -4.6757   -4.6757   -4.6725   -4.6725   -3.8549   -3.8549   -3.8549   -3.8549   -2.0429
   -2.0429   -2.0429   -2.0429   -1.8947   -1.2140   -1.2140   -1.2140   -1.2140   -0.0117   -0.0117
   -0.0117   -0.0117    1.7512    1.7512    1.7512    1.7512    3.0524    3.0524    3.0524    3.0524
    3.4662    3.4662    3.4662    3.4662    3.5220    3.5220    3.5220    3.5220    4.4482    4.4482
    4.4482    4.4482    4.6791    5.6735    5.6735    5.6735    5.6735    6.2039    6.2039    6.2039
    6.2039    6.5586    6.5586    6.5586    6.5586    6.8603    6.8603    6.8603    6.8603    7.0966
    7.0966    7.0966    7.0966    7.2707    7.2707    7.2707    7.2707    8.9085    8.9085    8.9085
    8.9085    9.3241    9.3241   12.0935   12.0935   12.0935   12.0935   12.1813   12.1813   12.1813
   12.1813   13.1438   13.1438   13.1438   13.1438   14.4768   14.4768   14.5415   14.5415   14.5415
   14.5415   14.7357   14.7357   14.7357   14.7357   15.5809   15.5809   15.5809   15.5809   15.7614
   15.7614   15.7614   15.7614   15.8600   15.8600   15.8600   15.8600   16.6165   16.6165   17.3642
   17.3642   17.3642   17.3642   18.6512   18.6512   18.6512   18.6512   18.9134   18.9134   18.9134
   18.9134   19.1833   20.1051   20.1051   20.1051   20.1051   21.8187   22.6137   22.6137   22.6137
   22.6137   23.5704   23.5704   23.6950
   6  1  -11.9073  -11.9073  -10.3473  -10.3473  -10.3354  -10.3354  -10.1387  -10.1387  -10.1387  -10.1387
          -9.8617   -9.8617   -9.7758   -9.7758   -9.7756   -9.7756   -9.7519   -9.7519   -9.7500   -9.7500
   -9.7500   -9.7500   -9.5612   -9.5612   -9.5612   -9.5612   -9.5004   -9.5004   -9.5004   -9.5004
   -9.3830   -9.3830   -9.2061   -9.2061   -8.9426   -8.9426   -8.9426   -8.9426   -8.8480   -8.8480
   -8.8480   -8.8480   -8.7476   -8.7476   -8.7476   -8.7476   -8.6320   -8.6320   -8.6276   -8.6276
   -8.6276   -8.6276   -8.4592   -8.4592   -8.4592   -8.4592   -8.3920   -8.3920   -8.2109   -8.2109
   -8.1146   -8.1146   -8.1146   -8.1146   -8.0914   -8.0914   -8.0914   -8.0914   -7.9576   -7.9576
   -7.9532   -7.9532   -7.9532   -7.9532   -7.8539   -7.8538   -7.7914   -7.7914   -7.7913   -7.7913
   -7.7905   -7.7902   -7.7709   -7.7708   -7.6159   -7.6159   -7.5444   -7.5444   -7.5419   -7.5419
   -7.5053   -7.5053   -7.4812   -7.4812   -7.4812   -7.4812   -7.3773   -7.3773   -7.3773   -7.3773
   -7.2848   -7.2848   -7.2848   -7.2848   -7.2232   -7.2232   -7.2232   -7.2232   -7.1380   -7.1380
   -7.1380   -7.1380   -7.0717   -7.0717   -6.8899   -6.8899   -6.7893   -6.7893   -6.6274   -6.6274
   -6.6274   -6.6274   -6.4271   -6.4271   -6.4271   -6.4271   -6.4091   -6.4091   -6.3154   -6.3154
   -6.3154   -6.3154   -6.1615   -6.1615   -6.1510   -6.1510   -6.1204   -6.1204   -6.1204   -6.1204
   -6.1184   -6.1184   -6.1184   -6.1184   -6.0719   -6.0719   -5.8677   -5.8677   -5.8124   -5.8124
   -5.8124   -5.8124   -5.6376   -5.6376   -5.6376   -5.6376   -5.5271   -5.5271   -5.5236   -5.5236
   -5.3663   -5.3663   -5.3660   -5.3660   -5.3110   -5.3110   -5.3110   -5.3110   -5.2476   -5.2476
   -5.1271   -5.1271   -5.1047   -5.1045   -5.0587   -5.0587   -5.0586   -5.0586   -4.9982   -4.9981
   -4.9830   -4.9830   -4.9830   -4.9830   -4.8996   -4.8996   -4.8995   -4.8995   -4.8489   -4.8489
   -3.6804   -3.6803   -3.5847   -3.5847   -3.5847   -3.5847   -3.1558   -3.1558   -2.7307   -2.7307
   -2.7307   -2.7307   -2.2738   -2.2738   -2.2738   -2.2738    0.1284    0.1284    0.4507    0.4508
    0.7315    0.7315    0.7315    0.7315    0.7415    0.7415    0.7415    0.7415    1.8879    1.8879
    1.8879    1.8879    3.7741    3.7741    3.7741    3.7741    3.8439    3.8439    3.8793    3.8793
    3.8793    3.8793    5.1036    5.1036    5.1036    5.1036    6.6792    6.6792    6.6792    6.6792
    6.8861    6.8861    6.9968    6.9968    6.9969    6.9969    7.2509    7.2510    9.1160    9.1160
    9.1163    9.1163    9.4516    9.4516    9.5772    9.5772    9.5772    9.5772   10.0920   10.0923
   10.3291   10.3291   10.3292   10.3292   10.7729   10.7729   10.9168   10.9168   10.9168   10.9168
   11.3650   11.3650   11.8357   11.8357   11.8358   11.8358   12.9705   12.9705   12.9705   12.9705
   12.9840   12.9840   12.9840   12.9840   14.1921   14.1921   14.1921   14.1921   14.9873   14.9873
   14.9873   14.9873   15.3130   15.3130   17.2682   17.2682   18.5068   18.5068   18.5068   18.5068
   18.8908   18.8910   19.0227   19.0227   19.2548   19.2548   19.3933   19.3933   19.7005   19.7005
   19.7005   19.7005   20.1779   20.1779   20.8893   20.8893   20.8893   20.8893   21.5995   21.5995
   21.6044   21.6044   23.5682   23.5682
   7  1  -11.9073  -11.9073  -10.3473  -10.3473  -10.3354  -10.3354  -10.1387  -10.1387  -10.1387  -10.1387
          -9.8617   -9.8617   -9.7758   -9.7758   -9.7756   -9.7756   -9.7519   -9.7519   -9.7500   -9.7500
   -9.7500   -9.7500   -9.5612   -9.5612   -9.5612   -9.5612   -9.5004   -9.5004   -9.5004   -9.5004
   -9.3830   -9.3830   -9.2061   -9.2061   -8.9426   -8.9426   -8.9426   -8.9426   -8.8480   -8.8480
   -8.8480   -8.8480   -8.7476   -8.7476   -8.7476   -8.7476   -8.6320   -8.6320   -8.6276   -8.6276
   -8.6276   -8.6276   -8.4592   -8.4592   -8.4592   -8.4592   -8.3920   -8.3920   -8.2109   -8.2109
   -8.1146   -8.1146   -8.1146   -8.1146   -8.0914   -8.0914   -8.0914   -8.0914   -7.9576   -7.9576
   -7.9532   -7.9532   -7.9532   -7.9532   -7.8539   -7.8538   -7.7914   -7.7914   -7.7913   -7.7913
   -7.7905   -7.7902   -7.7709   -7.7708   -7.6159   -7.6159   -7.5444   -7.5444   -7.5419   -7.5419
   -7.5053   -7.5053   -7.4812   -7.4812   -7.4812   -7.4812   -7.3773   -7.3773   -7.3773   -7.3773
   -7.2848   -7.2848   -7.2848   -7.2848   -7.2232   -7.2232   -7.2232   -7.2232   -7.1380   -7.1380
   -7.1380   -7.1380   -7.0717   -7.0717   -6.8899   -6.8899   -6.7893   -6.7893   -6.6274   -6.6274
   -6.6274   -6.6274   -6.4271   -6.4271   -6.4271   -6.4271   -6.4091   -6.4091   -6.3154   -6.3154
   -6.3154   -6.3154   -6.1615   -6.1615   -6.1510   -6.1510   -6.1204   -6.1204   -6.1204   -6.1204
   -6.1184   -6.1184   -6.1184   -6.1184   -6.0719   -6.0719   -5.8677   -5.8677   -5.8124   -5.8124
   -5.8124   -5.8124   -5.6376   -5.6376   -5.6376   -5.6376   -5.5271   -5.5271   -5.5236   -5.5236
   -5.3663   -5.3663   -5.3660   -5.3660   -5.3110   -5.3110   -5.3110   -5.3110   -5.2476   -5.2476
   -5.1271   -5.1271   -5.1047   -5.1045   -5.0587   -5.0587   -5.0586   -5.0586   -4.9982   -4.9981
   -4.9830   -4.9830   -4.9830   -4.9830   -4.8996   -4.8996   -4.8995   -4.8995   -4.8489   -4.8489
   -3.6804   -3.6803   -3.5847   -3.5847   -3.5847   -3.5847   -3.1558   -3.1558   -2.7307   -2.7307
   -2.7307   -2.7307   -2.2738   -2.2738   -2.2738   -2.2738    0.1284    0.1284    0.4507    0.4508
    0.7315    0.7315    0.7315    0.7315    0.7415    0.7415    0.7415    0.7415    1.8879    1.8879
    1.8879    1.8879    3.7741    3.7741    3.7741    3.7741    3.8439    3.8439    3.8793    3.8793
    3.8793    3.8793    5.1036    5.1036    5.1036    5.1036    6.6792    6.6792    6.6792    6.6792
    6.8861    6.8861    6.9968    6.9968    6.9969    6.9969    7.2509    7.2510    9.1160    9.1160
    9.1163    9.1163    9.4516    9.4516    9.5772    9.5772    9.5772    9.5772   10.0920   10.0923
   10.3291   10.3291   10.3292   10.3292   10.7729   10.7729   10.9168   10.9168   10.9168   10.9168
   11.3650   11.3650   11.8357   11.8357   11.8358   11.8358   12.9705   12.9705   12.9705   12.9705
   12.9840   12.9840   12.9840   12.9840   14.1921   14.1921   14.1921   14.1921   14.9873   14.9873
   14.9873   14.9873   15.3130   15.3130   17.2682   17.2682   18.5068   18.5068   18.5068   18.5068
   18.8908   18.8910   19.0227   19.0227   19.2548   19.2548   19.3933   19.3933   19.7005   19.7005
   19.7005   19.7005   20.1779   20.1779   20.8893   20.8893   20.8893   20.8893   21.5995   21.5995
   21.6044   21.6044   23.5682   23.5682
   8  1  -11.3856  -11.3856  -11.3856  -11.3856  -10.0657  -10.0655   -9.8850   -9.8850   -9.8850   -9.8850
          -9.8465   -9.8465   -9.8465   -9.8465   -9.8465   -9.8465   -9.8465   -9.8465   -9.7967   -9.7967
   -9.3595   -9.3595   -9.3595   -9.3595   -9.3508   -9.3508   -9.3508   -9.3508   -9.1187   -9.1187
   -9.1187   -9.1187   -9.1186   -9.1186   -9.1186   -9.1186   -9.0893   -9.0893   -9.0893   -9.0893
   -9.0531   -9.0531   -8.7050   -8.7050   -8.7050   -8.7050   -8.7050   -8.7050   -8.7050   -8.7050
   -8.6074   -8.6074   -8.6074   -8.6074   -8.5196   -8.5196   -8.4458   -8.4458   -8.4458   -8.4458
   -8.3274   -8.3274   -8.3274   -8.3274   -8.0997   -8.0997   -8.0997   -8.0997   -8.0996   -8.0996
   -8.0996   -8.0996   -8.0179   -8.0179   -8.0179   -8.0179   -8.0178   -8.0178   -8.0178   -8.0178
   -7.9612   -7.9612   -7.9612   -7.9612   -7.8886   -7.8886   -7.6743   -7.6743   -7.6743   -7.6743
   -7.3626   -7.3626   -7.3626   -7.3626   -7.3624   -7.3624   -7.3624   -7.3624   -7.2064   -7.2064
   -7.2064   -7.2064   -7.1739   -7.1739   -7.1739   -7.1739   -7.0564   -7.0564   -7.0564   -7.0564
   -6.7687   -6.7687   -6.7687   -6.7687   -6.7100   -6.7100   -6.7100   -6.7100   -6.6674   -6.6674
   -6.6674   -6.6674   -6.6235   -6.6235   -6.6235   -6.6235   -6.6234   -6.6234   -6.6234   -6.6234
   -6.4167   -6.4167   -6.4167   -6.4167   -6.2872   -6.2872   -6.2599   -6.2599   -6.2599   -6.2599
   -6.1691   -6.1691   -6.1691   -6.1691   -6.1690   -6.1690   -6.1690   -6.1690   -5.9330   -5.9330
   -5.9330   -5.9330   -5.8978   -5.8978   -5.8978   -5.8978   -5.5792   -5.5792   -5.5792   -5.5792
   -5.5792   -5.5792   -5.5792   -5.5792   -5.0452   -5.0448   -5.0341   -5.0341   -5.0341   -5.0341
   -5.0339   -5.0339   -5.0339   -5.0339   -4.7578   -4.7578   -4.6729   -4.6729   -4.6729   -4.6729
   -4.6390   -4.6390   -4.6375   -4.6375   -4.6173   -4.6173   -4.6173   -4.6173   -3.9722   -3.9722
   -3.9722   -3.9722   -2.9438   -2.9438   -2.9438   -2.9438   -2.9438   -2.9438   -2.9438   -2.9438
   -1.6069   -1.6069   -1.6069   -1.6069   -1.6069   -1.6069   -1.6069   -1.6069   -1.5085   -1.5085
    0.5205    0.5205    0.5205    0.5205    0.5207    0.5207    0.5207    0.5207    1.2108    1.2108
    1.2108    1.2108    3.3112    3.3112    3.5507    3.5508    4.2204    4.2204    4.2204    4.2204
    4.2630    4.2631    4.7275    4.7275    6.4086    6.4086    6.4086    6.4086    7.3628    7.3628
    7.3628    7.3628    7.3630    7.3630    7.3630    7.3630    8.3478    8.3479    8.6472    8.6472
    8.6472    8.6472    9.1643    9.1643    9.2168    9.2171    9.9889    9.9889    9.9889    9.9889
    9.9892    9.9892    9.9892    9.9892   10.2085   10.2085   10.2085   10.2085   10.5723   10.5723
   10.5723   10.5723   12.0186   12.0186   12.0186   12.0186   12.3085   12.3085   12.3085   12.3085
   15.8213   15.8213   15.8213   15.8213   15.8213   15.8213   15.8213   15.8213   16.1585   16.1585
   16.1585   16.1585   16.1586   16.1586   16.1586   16.1586   16.9105   16.9105   16.9105   16.9105
   16.9106   16.9106   16.9106   16.9106   19.0511   19.0511   19.0511   19.0511   19.0655   19.0655
   19.0655   19.0655   19.4865   19.4865   19.4865   19.4865   21.5123   21.5123   21.5123   21.5123
   23.2791   23.2791   23.2791   23.2791
   9  1  -12.3739  -10.9840  -10.5131  -10.5131  -10.5131  -10.5131  -10.3775  -10.3775  -10.3775  -10.3775
         -10.0520   -9.9670   -9.9396   -9.9396   -9.9396   -9.9396   -9.8055   -9.8055   -9.8055   -9.8055
   -9.7652   -9.3734   -9.3734   -9.3734   -9.3734   -9.3082   -9.3082   -9.3082   -9.3082   -9.2379
   -9.2379   -9.2379   -9.2379   -9.1716   -9.0666   -9.0666   -9.0666   -9.0666   -9.0023   -9.0023
   -9.0023   -9.0023   -8.7492   -8.7492   -8.7492   -8.7492   -8.5784   -8.5784   -8.5784   -8.5784
   -8.5368   -8.4070   -8.4070   -8.4070   -8.4070   -8.3337   -8.3337   -8.3337   -8.3337   -8.2684
   -8.2684   -8.2684   -8.2684   -8.1552   -8.1552   -8.1552   -8.1552   -7.9986   -7.9986   -7.9986
   -7.9986   -7.7988   -7.7835   -7.7835   -7.7835   -7.7835   -7.6928   -7.6928   -7.6575   -7.6575
   -7.6575   -7.6575   -7.6056   -7.6056   -7.6056   -7.6056   -7.4772   -7.4772   -7.4772   -7.4772
   -7.4514   -7.4514   -7.4514   -7.4514   -7.3700   -7.3700   -7.3700   -7.3700   -7.2196   -7.2196
   -7.2196   -7.2196   -7.0459   -7.0459   -7.0459   -7.0459   -6.9493   -6.9358   -6.9358   -6.9003
   -6.9003   -6.9003   -6.9003   -6.5508   -6.5508   -6.5508   -6.5508   -6.5466   -6.5466   -6.5466
   -6.5466   -6.5149   -6.5080   -6.5080   -6.5080   -6.5080   -6.4912   -6.4912   -6.4912   -6.4912
   -6.4596   -6.4596   -6.4596   -6.4596   -6.2764   -6.2456   -6.2456   -6.2456   -6.2456   -6.1821
   -6.0227   -6.0227   -5.9493   -5.9493   -5.9493   -5.9493   -5.8263   -5.6961   -5.6961   -5.6961
   -5.6961   -5.6884   -5.6884   -5.6884   -5.6884   -5.5599   -5.5599   -5.5599   -5.5599   -5.4934
   -5.4934   -5.4934   -5.4934   -5.4599   -5.4022   -5.4022   -5.4022   -5.4022   -5.3568   -5.3568
   -5.3568   -5.3568   -5.3104   -5.3104   -5.3104   -5.3104   -5.2814   -5.2814   -5.2814   -5.2814
   -5.0516   -4.9465   -4.9465   -4.9465   -4.9465   -4.8765   -4.8765   -4.8765   -4.8765   -4.7708
   -4.7708   -4.7708   -4.7708   -4.7596   -4.7596   -3.1607   -3.1607   -3.1607   -3.1607   -2.4998
   -2.4366   -2.4366   -2.4366   -2.4366   -0.7521   -0.7521   -0.7521   -0.7521    0.1192    0.1192
    0.1192    0.1192    1.9545    1.9545    1.9545    1.9545    2.3711    2.3711    2.3711    2.3711
    2.4495    2.4495    2.4495    2.4495    3.0234    3.0234    3.0234    3.0234    4.9976    4.9976
    4.9976    4.9976    5.2529    5.2529    5.2529    5.2529    5.7321    6.0070    6.0070    6.0070
    6.0070    6.3073    6.3073    6.3073    6.3073    7.7389    7.7389    7.7389    7.7389    7.8342
    7.8342    7.8342    7.8342    8.2891    8.2891    8.2891    8.2891    9.5465    9.5465    9.8169
    9.8169    9.8169    9.8169   11.6006   11.6006   11.6006   11.6006   11.8198   11.8198   11.8198
   11.8198   11.8586   11.8586   11.8586   11.8586   13.4897   13.4897   14.6473   14.6473   14.6473
   14.6473   14.9785   14.9785   14.9785   14.9785   15.2439   15.2439   15.2439   15.2439   15.8743
   15.8743   15.8743   15.8743   16.7805   16.7805   16.7805   16.7805   16.9535   16.9535   16.9535
   16.9535   17.3745   17.7326   17.7326   17.8741   17.8741   17.8741   17.8741   19.3216   19.3216
   19.3216   19.3216   20.2975   20.2975   20.2975   20.2975   22.4245   22.4245   22.4245   22.4245
   22.6240   23.2081   23.2081   23.6993
  10  1  -11.8386  -11.8386  -10.6259  -10.6259  -10.2871  -10.2871  -10.1224  -10.1224  -10.1224  -10.1224
          -9.8295   -9.8295   -9.8295   -9.8295   -9.7522   -9.7522   -9.7520   -9.7520   -9.7301   -9.7301
   -9.7066   -9.7066   -9.4510   -9.4510   -9.4510   -9.4510   -9.4291   -9.4291   -9.4291   -9.4291
   -9.3908   -9.3908   -9.3500   -9.3500   -9.1154   -9.1154   -9.1154   -9.1154   -8.8072   -8.8072
   -8.8072   -8.8072   -8.7581   -8.7581   -8.6771   -8.6771   -8.6771   -8.6771   -8.6085   -8.6085
   -8.6084   -8.6084   -8.6063   -8.6063   -8.6063   -8.6063   -8.2785   -8.2785   -8.1915   -8.1915
   -8.1915   -8.1915   -8.1003   -8.1002   -7.9828   -7.9828   -7.9828   -7.9828   -7.9457   -7.9457
   -7.9081   -7.9081   -7.9081   -7.9081   -7.8108   -7.8106   -7.7311   -7.7310   -7.6893   -7.6893
   -7.6893   -7.6893   -7.6779   -7.6778   -7.5506   -7.5506   -7.5506   -7.5506   -7.5403   -7.5403
   -7.5326   -7.5326   -7.5204   -7.5204   -7.5204   -7.5204   -7.5093   -7.5093   -7.4626   -7.4626
   -7.3435   -7.3435   -7.3435   -7.3435   -7.1991   -7.1991   -7.1991   -7.1991   -7.1880   -7.1880
   -7.0309   -7.0309   -7.0309   -7.0309   -7.0276   -7.0276   -6.7800   -6.7800   -6.7800   -6.7800
   -6.6268   -6.6268   -6.3650   -6.3650   -6.3587   -6.3587   -6.3587   -6.3587   -6.3372   -6.3372
   -6.3372   -6.3372   -6.1996   -6.1996   -6.1996   -6.1996   -6.1897   -6.1897   -6.1883   -6.1883
   -6.1288   -6.1288   -6.0032   -6.0031   -5.8715   -5.8715   -5.8715   -5.8715   -5.8072   -5.8072
   -5.8072   -5.8072   -5.6740   -5.6740   -5.6196   -5.6196   -5.5745   -5.5745   -5.5743   -5.5743
   -5.5001   -5.5001   -5.5001   -5.5001   -5.4112   -5.4110   -5.3430   -5.3430   -5.3430   -5.3430
   -5.1243   -5.1243   -5.0596   -5.0594   -5.0328   -5.0328   -5.0328   -5.0328   -5.0113   -5.0113
   -5.0113   -5.0113   -4.8377   -4.8377   -4.8375   -4.8375   -4.8323   -4.8323   -4.6583   -4.6583
   -3.9533   -3.9533   -3.9533   -3.9533   -3.5348   -3.5347   -3.1618   -3.1617   -2.2133   -2.2133
   -2.2133   -2.2133   -2.0611   -2.0611   -2.0610   -2.0610   -0.5779   -0.5779    0.3248    0.3248
    0.3248    0.3248    0.7611    0.7612    0.8604    0.8604    0.8604    0.8604    2.3633    2.3633
    2.3633    2.3633    2.7976    2.7976    2.7976    2.7976    3.2023    3.2023    3.2023    3.2023
    4.5154    4.5154    5.8693    5.8693    5.8693    5.8693    5.9615    5.9617    6.3828    6.3828
    6.3830    6.3830    7.5567    7.5567    7.9814    7.9814    7.9814    7.9814    8.6006    8.6006
    9.1406    9.1406    9.1407    9.1407    9.5261    9.5261    9.5262    9.5262   10.7913   10.7913
   10.7914   10.7914   10.9587   10.9587   11.1245   11.1245   11.1245   11.1245   11.5899   11.5902
   11.8693   11.8693   11.8693   11.8693   11.8875   11.8875   11.8876   11.8876   12.3955   12.3955
   12.3955   12.3955   12.4248   12.4248   14.4178   14.4178   14.8031   14.8031   14.8031   14.8031
   15.7169   15.7169   15.7169   15.7169   17.5846   17.5846   17.5846   17.5846   17.8089   17.8089
   18.2904   18.2904   18.5082   18.5083   19.0408   19.0408   19.2382   19.2382   19.2468   19.2468
   20.0435   20.0435   20.0435   20.0435   20.8046   20.8046   20.8046   20.8046   22.0884   22.0884
   22.2200   22.2200   23.2466   23.2466
  11  1  -11.8386  -11.8386  -10.6259  -10.6259  -10.2871  -10.2871  -10.1224  -10.1224  -10.1224  -10.1224
          -9.8295   -9.8295   -9.8295   -9.8295   -9.7522   -9.7522   -9.7520   -9.7520   -9.7301   -9.7301
   -9.7066   -9.7066   -9.4510   -9.4510   -9.4510   -9.4510   -9.4291   -9.4291   -9.4291   -9.4291
   -9.3908   -9.3908   -9.3500   -9.3500   -9.1154   -9.1154   -9.1154   -9.1154   -8.8072   -8.8072
   -8.8072   -8.8072   -8.7581   -8.7581   -8.6771   -8.6771   -8.6771   -8.6771   -8.6085   -8.6085
   -8.6084   -8.6084   -8.6063   -8.6063   -8.6063   -8.6063   -8.2785   -8.2785   -8.1915   -8.1915
   -8.1915   -8.1915   -8.1003   -8.1002   -7.9828   -7.9828   -7.9828   -7.9828   -7.9457   -7.9457
   -7.9081   -7.9081   -7.9081   -7.9081   -7.8108   -7.8106   -7.7311   -7.7310   -7.6893   -7.6893
   -7.6893   -7.6893   -7.6779   -7.6778   -7.5506   -7.5506   -7.5506   -7.5506   -7.5403   -7.5403
   -7.5326   -7.5326   -7.5204   -7.5204   -7.5204   -7.5204   -7.5093   -7.5093   -7.4626   -7.4626
   -7.3435   -7.3435   -7.3435   -7.3435   -7.1991   -7.1991   -7.1991   -7.1991   -7.1880   -7.1880
   -7.0309   -7.0309   -7.0309   -7.0309   -7.0276   -7.0276   -6.7800   -6.7800   -6.7800   -6.7800
   -6.6268   -6.6268   -6.3650   -6.3650   -6.3587   -6.3587   -6.3587   -6.3587   -6.3372   -6.3372
   -6.3372   -6.3372   -6.1996   -6.1996   -6.1996   -6.1996   -6.1897   -6.1897   -6.1883   -6.1883
   -6.1288   -6.1288   -6.0032   -6.0031   -5.8715   -5.8715   -5.8715   -5.8715   -5.8072   -5.8072
   -5.8072   -5.8072   -5.6740   -5.6740   -5.6196   -5.6196   -5.5745   -5.5745   -5.5743   -5.5743
   -5.5001   -5.5001   -5.5001   -5.5001   -5.4112   -5.4110   -5.3430   -5.3430   -5.3430   -5.3430
   -5.1243   -5.1243   -5.0596   -5.0594   -5.0328   -5.0328   -5.0328   -5.0328   -5.0113   -5.0113
   -5.0113   -5.0113   -4.8377   -4.8377   -4.8375   -4.8375   -4.8323   -4.8323   -4.6583   -4.6583
   -3.9533   -3.9533   -3.9533   -3.9533   -3.5348   -3.5347   -3.1618   -3.1617   -2.2133   -2.2133
   -2.2133   -2.2133   -2.0611   -2.0611   -2.0610   -2.0610   -0.5779   -0.5779    0.3248    0.3248
    0.3248    0.3248    0.7611    0.7612    0.8604    0.8604    0.8604    0.8604    2.3633    2.3633
    2.3633    2.3633    2.7976    2.7976    2.7976    2.7976    3.2023    3.2023    3.2023    3.2023
    4.5154    4.5154    5.8693    5.8693    5.8693    5.8693    5.9615    5.9617    6.3828    6.3828
    6.3830    6.3830    7.5567    7.5567    7.9814    7.9814    7.9814    7.9814    8.6006    8.6006
    9.1406    9.1406    9.1407    9.1407    9.5261    9.5261    9.5262    9.5262   10.7913   10.7913
   10.7914   10.7914   10.9587   10.9587   11.1245   11.1245   11.1245   11.1245   11.5899   11.5902
   11.8693   11.8693   11.8693   11.8693   11.8875   11.8875   11.8876   11.8876   12.3955   12.3955
   12.3955   12.3955   12.4248   12.4248   14.4178   14.4178   14.8031   14.8031   14.8031   14.8031
   15.7169   15.7169   15.7169   15.7169   17.5846   17.5846   17.5846   17.5846   17.8089   17.8089
   18.2904   18.2904   18.5082   18.5083   19.0408   19.0408   19.2382   19.2382   19.2468   19.2468
   20.0435   20.0435   20.0435   20.0435   20.8046   20.8046   20.8046   20.8046   22.0884   22.0884
   22.2200   22.2200   23.2466   23.2466
  12  1  -11.3193  -11.3193  -11.3193  -11.3193  -10.1572  -10.1572  -10.1572  -10.1572  -10.0086  -10.0085
          -9.8183   -9.8183   -9.8183   -9.8183   -9.8183   -9.8183   -9.8183   -9.8183   -9.7485   -9.7485
   -9.3126   -9.3126   -9.3126   -9.3126   -9.2625   -9.2625   -9.2625   -9.2625   -9.2624   -9.2624
   -9.2624   -9.2624   -9.1595   -9.1595   -9.1528   -9.1528   -9.1528   -9.1528   -9.0677   -9.0677
   -9.0677   -9.0677   -8.7895   -8.7895   -8.6928   -8.6928   -8.6928   -8.6928   -8.5435   -8.5435
   -8.5435   -8.5435   -8.5435   -8.5435   -8.5435   -8.5435   -8.3790   -8.3790   -8.3790   -8.3790
   -8.3162   -8.3162   -8.3162   -8.3162   -8.1095   -8.1095   -8.1095   -8.1095   -8.1094   -8.1094
   -8.1094   -8.1094   -8.0579   -8.0579   -8.0579   -8.0579   -7.9613   -7.9613   -7.9613   -7.9613
   -7.9613   -7.9613   -7.9613   -7.9613   -7.5491   -7.5491   -7.5491   -7.5491   -7.5296   -7.5296
   -7.3184   -7.3184   -7.3184   -7.3184   -7.3182   -7.3182   -7.3182   -7.3182   -7.2650   -7.2650
   -7.2650   -7.2650   -7.1816   -7.1816   -7.1816   -7.1816   -7.1746   -7.1746   -7.1746   -7.1746
   -6.8316   -6.8316   -6.8316   -6.8316   -6.7876   -6.7876   -6.7876   -6.7876   -6.7757   -6.7757
   -6.7757   -6.7757   -6.7756   -6.7756   -6.7756   -6.7756   -6.7000   -6.7000   -6.7000   -6.7000
   -6.3877   -6.3877   -6.3877   -6.3877   -6.3876   -6.3876   -6.3876   -6.3876   -6.2441   -6.2441
   -6.2441   -6.2441   -6.1615   -6.1615   -6.0282   -6.0282   -6.0282   -6.0282   -5.9166   -5.9166
   -5.9166   -5.9166   -5.8610   -5.8610   -5.8610   -5.8610   -5.3787   -5.3787   -5.3787   -5.3787
   -5.3786   -5.3786   -5.3786   -5.3786   -5.1172   -5.1168   -5.0530   -5.0530   -4.9853   -4.9853
   -4.9853   -4.9853   -4.9851   -4.9851   -4.9851   -4.9851   -4.8966   -4.8966   -4.8966   -4.8966
   -4.7640   -4.7640   -4.7640   -4.7640   -4.6389   -4.6389   -4.6377   -4.6376   -3.5836   -3.5836
   -3.5836   -3.5836   -2.8927   -2.8927   -2.8927   -2.8927   -2.8927   -2.8927   -2.8927   -2.8927
   -1.8112   -1.8112   -1.8112   -1.8112   -1.8112   -1.8112   -1.8112   -1.8112   -1.1468   -1.1468
    0.3682    0.3682    0.3682    0.3682    0.9287    0.9287    0.9287    0.9287    0.9288    0.9288
    0.9288    0.9288    2.6068    2.6068    3.5997    3.5998    4.2064    4.2065    5.1512    5.1512
    5.1512    5.1512    5.4300    5.4300    6.1561    6.1561    6.1561    6.1561    6.1563    6.1563
    6.1563    6.1563    6.5951    6.5951    6.5951    6.5951    8.3948    8.3949    8.9097    8.9097
    9.1093    9.1093    9.1093    9.1093    9.1287    9.1290    9.4174    9.4174    9.4174    9.4174
    9.7849    9.7849    9.7849    9.7849   11.3131   11.3131   11.3131   11.3131   11.3133   11.3133
   11.3133   11.3133   13.0162   13.0162   13.0162   13.0162   13.2469   13.2469   13.2469   13.2469
   15.8436   15.8436   15.8436   15.8436   15.8436   15.8436   15.8436   15.8436   16.1298   16.1298
   16.1298   16.1298   16.1298   16.1298   16.1298   16.1298   16.6807   16.6807   16.6807   16.6807
   16.6808   16.6808   16.6808   16.6808   18.0523   18.0523   18.0523   18.0523   18.5933   18.5933
   18.5933   18.5933   18.6337   18.6337   18.6337   18.6337   22.1339   22.1339   22.1339   22.1339
   23.2947   23.2947   23.2947   23.2947
  13  1  -12.2511  -11.3049  -10.5204  -10.5204  -10.5204  -10.5204  -10.4410  -10.4410  -10.4410  -10.4410
         -10.0148   -9.8988   -9.7981   -9.7981   -9.7981   -9.7981   -9.7123   -9.6984   -9.6984   -9.6984
   -9.6984   -9.3685   -9.3685   -9.3685   -9.3685   -9.3111   -9.3010   -9.3010   -9.3010   -9.3010
   -9.2444   -9.2444   -9.2444   -9.2444   -9.1688   -9.1688   -9.1688   -9.1688   -8.9519   -8.9519
   -8.9519   -8.9519   -8.8978   -8.8978   -8.8978   -8.8978   -8.7526   -8.7526   -8.7526   -8.7526
   -8.3976   -8.3976   -8.3976   -8.3976   -8.3777   -8.3569   -8.3569   -8.3569   -8.3569   -8.1199
   -8.1199   -8.1199   -8.1199   -8.1048   -8.1048   -8.1048   -8.1048   -7.9647   -7.9647   -7.9647
   -7.9647   -7.8716   -7.6285   -7.6285   -7.6069   -7.6069   -7.6069   -7.6069   -7.6018   -7.6018
   -7.6018   -7.6018   -7.5945   -7.5945   -7.5945   -7.5945   -7.4542   -7.4542   -7.4542   -7.4542
   -7.4115   -7.4115   -7.4115   -7.4115   -7.3395   -7.3395   -7.3395   -7.3395   -7.2534   -7.2534
   -7.2534   -7.2534   -7.1213   -7.1213   -7.0986   -7.0986   -7.0986   -7.0986   -7.0232   -7.0232
   -7.0232   -7.0232   -6.9135   -6.9135   -6.9135   -6.9135   -6.8452   -6.7121   -6.7121   -6.7121
   -6.7121   -6.6430   -6.6430   -6.6430   -6.6430   -6.3657   -6.3657   -6.3657   -6.3657   -6.3564
   -6.3138   -6.3138   -6.3138   -6.3138   -6.1498   -6.0896   -6.0896   -6.0896   -6.0896   -6.0575
   -5.9943   -5.9943   -5.9943   -5.9943   -5.9088   -5.7725   -5.7725   -5.7016   -5.7016   -5.7016
   -5.7016   -5.6919   -5.6919   -5.6919   -5.6919   -5.5746   -5.5746   -5.5746   -5.5746   -5.5610
   -5.5610   -5.5610   -5.5610   -5.5269   -5.5269   -5.5269   -5.5269   -5.4753   -5.4753   -5.4753
   -5.4753   -5.3703   -5.3394   -5.3394   -5.3394   -5.3394   -5.1980   -5.1980   -5.1980   -5.1980
   -5.0911   -4.9304   -4.9304   -4.9304   -4.9304   -4.9089   -4.9089   -4.9089   -4.9089   -4.8979
   -4.8979   -4.4655   -4.4655   -4.4655   -4.4655   -3.2542   -2.8301   -2.8301   -2.8301   -2.8301
   -2.4021   -2.4021   -2.4021   -2.4021   -0.2403   -0.2403   -0.2403   -0.2403    0.3307    0.3307
    0.3307    0.3307    1.2897    1.2897    1.2897    1.2897    1.9050    1.9050    1.9050    1.9050
    2.2752    2.2752    2.2752    2.2752    2.3584    2.3584    2.3584    2.3584    4.3530    4.3530
    4.3530    4.3530    5.9005    5.9005    5.9005    5.9005    6.1180    6.1180    6.1180    6.1180
    6.1376    6.1376    6.1376    6.1376    7.2278    8.2818    8.2818    8.2818    8.2818    8.5811
    8.5811    8.5811    8.5811    9.9032    9.9032    9.9032    9.9032    9.9102    9.9102   10.5335
   10.5335   10.5335   10.5335   10.9122   10.9122   10.9122   10.9122   10.9588   10.9588   10.9588
   10.9588   11.3651   11.3651   11.3651   11.3651   12.5769   12.5769   14.7248   14.7248   14.7248
   14.7248   14.8244   14.8244   14.8244   14.8244   15.2366   15.2366   15.2366   15.2366   15.3360
   15.8363   15.8363   15.8363   15.8363   16.2529   16.2529   16.2529   16.2529   16.5573   16.5573
   16.5573   16.5573   18.0054   18.0054   18.0054   18.0054   18.8479   18.8479   19.9837   19.9837
   19.9837   19.9837   20.2598   20.2598   20.2598   20.2598   22.1168   22.1168   22.1168   22.1168
   22.6281   22.6281   23.1445   23.6983
  14  1  -11.7259  -11.7259  -10.8991  -10.8991  -10.2070  -10.2069  -10.0959  -10.0959  -10.0959  -10.0959
          -9.8998   -9.8998   -9.8998   -9.8998   -9.7070   -9.7070   -9.7069   -9.7069   -9.6970   -9.6970
   -9.6262   -9.6262   -9.5942   -9.5941   -9.3302   -9.3302   -9.3302   -9.3302   -9.3191   -9.3191
   -9.3191   -9.3191   -9.2951   -9.2951   -9.2782   -9.2782   -9.2782   -9.2782   -8.8860   -8.8860
   -8.7637   -8.7637   -8.7637   -8.7637   -8.7366   -8.7366   -8.7366   -8.7366   -8.6988   -8.6988
   -8.6987   -8.6987   -8.5619   -8.5619   -8.5619   -8.5619   -8.3064   -8.3064   -8.3064   -8.3064
   -8.1720   -8.1720   -8.0303   -8.0301   -7.9395   -7.9395   -7.8786   -7.8786   -7.8786   -7.8786
   -7.8536   -7.8536   -7.8536   -7.8536   -7.8426   -7.8424   -7.7454   -7.7454   -7.7454   -7.7454
   -7.6656   -7.6655   -7.5812   -7.5812   -7.5812   -7.5812   -7.5111   -7.5111   -7.5042   -7.5042
   -7.4872   -7.4872   -7.4872   -7.4872   -7.4226   -7.4226   -7.4226   -7.4226   -7.4067   -7.4067
   -7.3783   -7.3782   -7.3737   -7.3737   -7.2864   -7.2864   -7.1817   -7.1816   -7.1652   -7.1652
   -7.1652   -7.1652   -6.9105   -6.9105   -6.9105   -6.9105   -6.9032   -6.9032   -6.9032   -6.9032
   -6.4539   -6.4539   -6.4312   -6.4312   -6.4312   -6.4312   -6.3743   -6.3743   -6.3686   -6.3686
   -6.3686   -6.3686   -6.3004   -6.3004   -6.2942   -6.2942   -6.2448   -6.2448   -6.2229   -6.2229
   -6.2229   -6.2229   -5.8192   -5.8192   -5.8169   -5.8168   -5.7953   -5.7951   -5.7597   -5.7597
   -5.7596   -5.7596   -5.7566   -5.7566   -5.7513   -5.7513   -5.7513   -5.7513   -5.6037   -5.6037
   -5.6037   -5.6037   -5.3845   -5.3845   -5.3845   -5.3845   -5.3691   -5.3691   -5.3691   -5.3691
   -5.1585   -5.1584   -5.0535   -5.0535   -5.0535   -5.0535   -5.0179   -5.0179   -4.9917   -4.9917
   -4.9916   -4.9916   -4.8240   -4.8240   -4.8208   -4.8208   -4.8207   -4.8207   -4.3006   -4.3006
   -4.3006   -4.3006   -4.1250   -4.1250   -3.3997   -3.3997   -3.1741   -3.1741   -1.7485   -1.7485
   -1.7484   -1.7484   -1.6179   -1.6179   -1.6179   -1.6179   -1.3686   -1.3686   -0.1039   -0.1039
   -0.1039   -0.1039    0.9931    0.9931    0.9931    0.9931    1.2622    1.2624    1.8423    1.8423
    1.8423    1.8423    2.6879    2.6879    2.6879    2.6879    2.9114    2.9114    2.9115    2.9115
    4.7765    4.7767    5.1870    5.1870    5.6489    5.6489    5.6490    5.6490    6.7067    6.7067
    6.7067    6.7067    7.8175    7.8175    8.7152    8.7152    9.1804    9.1804    9.1804    9.1804
    9.2336    9.2336    9.2336    9.2336    9.4551    9.4551    9.4551    9.4551   10.7437   10.7437
   10.7437   10.7437   11.2595   11.2595   11.2596   11.2596   11.2655   11.2655   11.5766   11.5766
   11.5766   11.5766   11.8562   11.8562   11.8562   11.8562   11.9362   11.9362   11.9363   11.9363
   13.0858   13.0861   13.5444   13.5444   13.5971   13.5971   15.3767   15.3767   15.3767   15.3767
   15.9867   15.9867   16.1816   16.1816   16.1816   16.1816   16.4387   16.4387   16.4387   16.4387
   17.8646   17.8646   18.1995   18.1995   19.0687   19.0687   19.2121   19.2121   19.3103   19.3103
   20.2722   20.2722   20.2722   20.2722   20.6991   20.6991   20.6991   20.6991   22.4320   22.4320
   22.5805   22.5805   22.7297   22.7297
  15  1  -11.7259  -11.7259  -10.8991  -10.8991  -10.2070  -10.2069  -10.0959  -10.0959  -10.0959  -10.0959
          -9.8998   -9.8998   -9.8998   -9.8998   -9.7070   -9.7070   -9.7069   -9.7069   -9.6970   -9.6970
   -9.6262   -9.6262   -9.5942   -9.5941   -9.3302   -9.3302   -9.3302   -9.3302   -9.3191   -9.3191
   -9.3191   -9.3191   -9.2951   -9.2951   -9.2782   -9.2782   -9.2782   -9.2782   -8.8860   -8.8860
   -8.7637   -8.7637   -8.7637   -8.7637   -8.7366   -8.7366   -8.7366   -8.7366   -8.6988   -8.6988
   -8.6987   -8.6987   -8.5619   -8.5619   -8.5619   -8.5619   -8.3064   -8.3064   -8.3064   -8.3064
   -8.1720   -8.1720   -8.0303   -8.0301   -7.9395   -7.9395   -7.8786   -7.8786   -7.8786   -7.8786
   -7.8536   -7.8536   -7.8536   -7.8536   -7.8426   -7.8424   -7.7454   -7.7454   -7.7454   -7.7454
   -7.6656   -7.6655   -7.5812   -7.5812   -7.5812   -7.5812   -7.5111   -7.5111   -7.5042   -7.5042
   -7.4872   -7.4872   -7.4872   -7.4872   -7.4226   -7.4226   -7.4226   -7.4226   -7.4067   -7.4067
   -7.3783   -7.3782   -7.3737   -7.3737   -7.2864   -7.2864   -7.1817   -7.1816   -7.1652   -7.1652
   -7.1652   -7.1652   -6.9105   -6.9105   -6.9105   -6.9105   -6.9032   -6.9032   -6.9032   -6.9032
   -6.4539   -6.4539   -6.4312   -6.4312   -6.4312   -6.4312   -6.3743   -6.3743   -6.3686   -6.3686
   -6.3686   -6.3686   -6.3004   -6.3004   -6.2942   -6.2942   -6.2448   -6.2448   -6.2229   -6.2229
   -6.2229   -6.2229   -5.8192   -5.8192   -5.8169   -5.8168   -5.7953   -5.7951   -5.7597   -5.7597
   -5.7596   -5.7596   -5.7566   -5.7566   -5.7513   -5.7513   -5.7513   -5.7513   -5.6037   -5.6037
   -5.6037   -5.6037   -5.3845   -5.3845   -5.3845   -5.3845   -5.3691   -5.3691   -5.3691   -5.3691
   -5.1585   -5.1584   -5.0535   -5.0535   -5.0535   -5.0535   -5.0179   -5.0179   -4.9917   -4.9917
   -4.9916   -4.9916   -4.8240   -4.8240   -4.8208   -4.8208   -4.8207   -4.8207   -4.3006   -4.3006
   -4.3006   -4.3006   -4.1250   -4.1250   -3.3997   -3.3997   -3.1741   -3.1741   -1.7485   -1.7485
   -1.7484   -1.7484   -1.6179   -1.6179   -1.6179   -1.6179   -1.3686   -1.3686   -0.1039   -0.1039
   -0.1039   -0.1039    0.9931    0.9931    0.9931    0.9931    1.2622    1.2624    1.8423    1.8423
    1.8423    1.8423    2.6879    2.6879    2.6879    2.6879    2.9114    2.9114    2.9115    2.9115
    4.7765    4.7767    5.1870    5.1870    5.6489    5.6489    5.6490    5.6490    6.7067    6.7067
    6.7067    6.7067    7.8175    7.8175    8.7152    8.7152    9.1804    9.1804    9.1804    9.1804
    9.2336    9.2336    9.2336    9.2336    9.4551    9.4551    9.4551    9.4551   10.7437   10.7437
   10.7437   10.7437   11.2595   11.2595   11.2596   11.2596   11.2655   11.2655   11.5766   11.5766
   11.5766   11.5766   11.8562   11.8562   11.8562   11.8562   11.9362   11.9362   11.9363   11.9363
   13.0858   13.0861   13.5444   13.5444   13.5971   13.5971   15.3767   15.3767   15.3767   15.3767
   15.9867   15.9867   16.1816   16.1816   16.1816   16.1816   16.4387   16.4387   16.4387   16.4387
   17.8646   17.8646   18.1995   18.1995   19.0687   19.0687   19.2121   19.2121   19.3103   19.3103
   20.2722   20.2722   20.2722   20.2722   20.6991   20.6991   20.6991   20.6991   22.4320   22.4320
   22.5805   22.5805   22.7297   22.7297
  16  1  -11.2106  -11.2106  -11.2106  -11.2106  -10.4188  -10.4188  -10.4188  -10.4188   -9.9159   -9.9158
          -9.7714   -9.7714   -9.7714   -9.7714   -9.7714   -9.7714   -9.7714   -9.7714   -9.6682   -9.6682
   -9.3985   -9.3985   -9.3985   -9.3985   -9.3984   -9.3984   -9.3984   -9.3984   -9.3090   -9.3090
   -9.2519   -9.2519   -9.2519   -9.2519   -9.0367   -9.0367   -9.0367   -9.0367   -9.0323   -9.0323
   -9.0323   -9.0323   -9.0284   -9.0284   -8.7760   -8.7760   -8.7760   -8.7760   -8.3971   -8.3971
   -8.3971   -8.3971   -8.3971   -8.3971   -8.3971   -8.3971   -8.3281   -8.3281   -8.3281   -8.3281
   -8.3012   -8.3012   -8.3012   -8.3012   -8.1293   -8.1293   -8.1293   -8.1293   -8.1293   -8.1293
   -8.1293   -8.1293   -8.0630   -8.0630   -8.0630   -8.0630   -7.8524   -7.8524   -7.8524   -7.8524
   -7.8523   -7.8523   -7.8523   -7.8523   -7.4666   -7.4666   -7.4666   -7.4666   -7.3587   -7.3587
   -7.3587   -7.3587   -7.3231   -7.3231   -7.3231   -7.3231   -7.2421   -7.2421   -7.2421   -7.2421
   -7.2420   -7.2420   -7.2420   -7.2420   -7.1712   -7.1712   -7.1712   -7.1712   -7.1440   -7.1440
   -6.9871   -6.9871   -6.9871   -6.9871   -6.9870   -6.9870   -6.9870   -6.9870   -6.9631   -6.9631
   -6.9631   -6.9631   -6.7981   -6.7981   -6.7981   -6.7981   -6.6484   -6.6484   -6.6484   -6.6484
   -6.6064   -6.6064   -6.6064   -6.6064   -6.6063   -6.6063   -6.6063   -6.6063   -6.0836   -6.0836
   -6.0836   -6.0836   -5.9827   -5.9826   -5.8651   -5.8651   -5.8651   -5.8651   -5.8306   -5.8306
   -5.8306   -5.8306   -5.7869   -5.7869   -5.7869   -5.7869   -5.4438   -5.4438   -5.2339   -5.2335
   -5.1958   -5.1958   -5.1958   -5.1958   -5.1957   -5.1957   -5.1957   -5.1957   -5.1541   -5.1541
   -5.1541   -5.1541   -4.9414   -4.9414   -4.9414   -4.9414   -4.9412   -4.9412   -4.9412   -4.9412
   -4.9077   -4.9077   -4.9077   -4.9077   -4.6387   -4.6387   -4.6378   -4.6378   -3.1308   -3.1308
   -3.1308   -3.1308   -2.8035   -2.8035   -2.8035   -2.8035   -2.8034   -2.8034   -2.8034   -2.8034
   -2.0531   -2.0531   -2.0531   -2.0531   -2.0530   -2.0530   -2.0530   -2.0530   -0.6459   -0.6459
   -0.4853   -0.4853   -0.4853   -0.4853    1.5111    1.5111    1.5111    1.5111    1.5113    1.5113
    1.5113    1.5113    1.9106    1.9106    3.6776    3.6777    4.1191    4.1191    5.0287    5.0287
    5.0287    5.0287    5.0289    5.0289    5.0289    5.0289    6.0457    6.0457    6.0457    6.0457
    6.1207    6.1207    6.8979    6.8979    6.8979    6.8979    8.4724    8.4724    8.5139    8.5139
    8.7022    8.7022    8.7022    8.7022    9.0008    9.0010    9.0578    9.0578    9.0578    9.0578
    9.9751    9.9751    9.9751    9.9751   12.5989   12.5989   12.5989   12.5989   12.5992   12.5992
   12.5992   12.5992   14.0489   14.0489   14.0489   14.0489   14.2207   14.2207   14.2207   14.2207
   15.8791   15.8791   15.8791   15.8791   15.8792   15.8792   15.8792   15.8792   16.0861   16.0861
   16.0861   16.0861   16.0861   16.0861   16.0861   16.0861   16.2697   16.2697   16.2697   16.2697
   16.2698   16.2698   16.2698   16.2698   16.3977   16.3977   16.3977   16.3977   17.9066   17.9066
   17.9066   17.9066   17.9688   17.9688   17.9688   17.9688   22.5657   22.5657   22.5657   22.5657
   23.2790   23.2790   23.2790   23.2790
  17  1  -12.0800  -11.6017  -10.5214  -10.5214  -10.5214  -10.5214  -10.4849  -10.4849  -10.4849  -10.4849
          -9.9694   -9.8935   -9.6545   -9.6545   -9.6545   -9.6545   -9.6391   -9.5527   -9.5527   -9.5527
   -9.5527   -9.4370   -9.3959   -9.3959   -9.3959   -9.3959   -9.3477   -9.3477   -9.3477   -9.3477
   -9.2491   -9.2491   -9.2491   -9.2491   -9.1691   -9.1691   -9.1691   -9.1691   -9.1558   -9.1558
[...]
    1.9331    1.9333    2.2305    2.2305    2.2305    2.2305    3.5194    3.5194    3.5195    3.5195
    3.7041    3.7043    4.9013    4.9013    4.9014    4.9014    5.8101    5.8101    7.0982    7.0982
    7.6170    7.6170    7.6170    7.6170    9.2346    9.2346    9.2346    9.2346    9.3769    9.3769
    9.3769    9.3769    9.6455    9.6455    9.6455    9.6455   10.1924   10.1924   10.1924   10.1924
   10.2731   10.2731   11.3464   11.3464   11.3464   11.3464   11.6218   11.6218   11.6219   11.6219
   11.6890   11.6890   11.9372   11.9372   11.9372   11.9372   12.4538   12.4538   12.4538   12.4538
   12.8624   12.8624   14.0383   14.0383   14.5224   14.5227   14.7085   14.7085   15.1172   15.1172
   15.1172   15.1172   15.8688   15.8688   15.8688   15.8688   16.3423   16.3423   16.3423   16.3423
   16.9654   16.9656   17.0695   17.0695   19.1035   19.1035   19.1788   19.1789   20.2985   20.2985
   20.4200   20.4200   20.4200   20.4200   20.6028   20.6028   20.6028   20.6028   22.0438   22.0438
   22.6514   22.6514   22.7427   22.7427
  20  1  -11.0621  -11.0621  -11.0621  -11.0621  -10.6611  -10.6611  -10.6611  -10.6611   -9.7916   -9.7915
          -9.7057   -9.7057   -9.7057   -9.7057   -9.7057   -9.7057   -9.7057   -9.7057   -9.5559   -9.5559
   -9.5188   -9.5188   -9.5188   -9.5188   -9.5188   -9.5188   -9.5188   -9.5188   -9.4764   -9.4763
   -9.2358   -9.2358   -9.1742   -9.1742   -9.1742   -9.1742   -9.0300   -9.0300   -9.0300   -9.0300
   -8.9840   -8.9840   -8.9840   -8.9840   -8.8539   -8.8539   -8.8539   -8.8539   -8.2965   -8.2965
   -8.2965   -8.2965   -8.2883   -8.2883   -8.2883   -8.2883   -8.2876   -8.2876   -8.2876   -8.2876
   -8.2876   -8.2876   -8.2876   -8.2876   -8.1626   -8.1626   -8.1626   -8.1626   -8.1626   -8.1626
   -8.1626   -8.1626   -7.9545   -7.9545   -7.9545   -7.9545   -7.6832   -7.6832   -7.6832   -7.6832
   -7.6832   -7.6832   -7.6832   -7.6832   -7.5631   -7.5631   -7.5631   -7.5631   -7.4247   -7.4247
   -7.4247   -7.4247   -7.3682   -7.3682   -7.3682   -7.3682   -7.2307   -7.2307   -7.2307   -7.2307
   -7.2306   -7.2306   -7.2306   -7.2306   -7.1566   -7.1566   -7.1566   -7.1566   -7.1258   -7.1258
   -7.1258   -7.1258   -7.1258   -7.1258   -7.1258   -7.1258   -7.0596   -7.0596   -7.0596   -7.0596
   -6.8078   -6.8078   -6.8078   -6.8078   -6.8077   -6.8077   -6.8077   -6.8077   -6.7527   -6.7527
   -6.7527   -6.7527   -6.7352   -6.7352   -6.6451   -6.6451   -6.6451   -6.6451   -5.9541   -5.9541
   -5.9541   -5.9541   -5.8725   -5.8725   -5.8284   -5.8284   -5.8284   -5.8284   -5.7794   -5.7793
   -5.7576   -5.7576   -5.7576   -5.7576   -5.5443   -5.5443   -5.5443   -5.5443   -5.3897   -5.3893
   -5.3889   -5.3889   -5.3889   -5.3889   -5.0934   -5.0934   -5.0934   -5.0934   -5.0541   -5.0541
   -5.0541   -5.0541   -5.0539   -5.0539   -5.0539   -5.0539   -4.9291   -4.9291   -4.9291   -4.9291
   -4.9289   -4.9289   -4.9289   -4.9289   -4.6385   -4.6385   -4.6380   -4.6380   -2.6726   -2.6726
   -2.6726   -2.6726   -2.6725   -2.6725   -2.6725   -2.6725   -2.5996   -2.5996   -2.5996   -2.5996
   -2.2894   -2.2894   -2.2894   -2.2894   -2.2894   -2.2894   -2.2894   -2.2894   -1.2751   -1.2751
   -1.2751   -1.2751   -0.0642   -0.0642    1.2281    1.2281    2.2265    2.2265    2.2265    2.2265
    2.2267    2.2267    2.2267    2.2267    3.7783    3.7783    3.9932    3.9932    3.9932    3.9932
    3.9934    3.9934    3.9934    3.9934    4.0107    4.0107    6.7902    6.7902    6.7902    6.7902
    6.7905    6.7905    7.3066    7.3066    7.3066    7.3066    8.0091    8.0091    8.0498    8.0498
    8.0498    8.0498    8.3968    8.3968    8.3968    8.3968    8.5786    8.5786    8.8544    8.8546
   11.2626   11.2626   11.2626   11.2626   13.7861   13.7861   13.7861   13.7861   13.7863   13.7863
   13.7863   13.7863   14.6250   14.6250   14.6250   14.6250   15.0892   15.0892   15.0892   15.0892
   15.2136   15.2136   15.2136   15.2136   15.6509   15.6509   15.6509   15.6509   15.6510   15.6510
   15.6510   15.6510   15.9254   15.9254   15.9254   15.9254   15.9254   15.9254   15.9254   15.9254
   16.0345   16.0345   16.0345   16.0345   16.0345   16.0345   16.0345   16.0345   17.0586   17.0586
   17.0586   17.0586   17.1354   17.1354   17.1354   17.1354   22.8651   22.8651   22.8651   22.8651
   23.2080   23.2080   23.2080   23.2080
  21  1  -11.8623  -11.8623  -10.5109  -10.5109  -10.5109  -10.5109  -10.5109  -10.5109  -10.5109  -10.5109
          -9.9242   -9.9242   -9.5469   -9.5469   -9.5171   -9.5171   -9.5171   -9.5171   -9.5171   -9.5171
   -9.5171   -9.5171   -9.3737   -9.3737   -9.3737   -9.3737   -9.3737   -9.3737   -9.3737   -9.3737
   -9.3084   -9.3084   -9.3084   -9.3084   -9.3084   -9.3084   -9.3084   -9.3084   -9.0434   -9.0434
   -9.0434   -9.0434   -9.0434   -9.0434   -9.0434   -9.0434   -8.6293   -8.6293   -8.6293   -8.6293
   -8.6293   -8.6293   -8.6293   -8.6293   -8.2951   -8.2951   -8.2951   -8.2951   -8.2951   -8.2951
   -8.2951   -8.2951   -8.0896   -8.0896   -7.5779   -7.5779   -7.5779   -7.5779   -7.5779   -7.5779
   -7.5779   -7.5779   -7.5726   -7.5726   -7.5726   -7.5726   -7.5726   -7.5726   -7.5726   -7.5726
   -7.5183   -7.5183   -7.5183   -7.5183   -7.5183   -7.5183   -7.5183   -7.5183   -7.4239   -7.4239
   -7.4239   -7.4239   -7.3076   -7.3076   -7.3076   -7.3076   -7.3076   -7.3076   -7.3076   -7.3076
   -7.2868   -7.2868   -7.2868   -7.2868   -7.2868   -7.2868   -7.2868   -7.2868   -7.2388   -7.2388
   -7.2388   -7.2388   -7.2388   -7.2388   -7.2388   -7.2388   -6.9670   -6.9670   -6.9670   -6.9670
   -6.9670   -6.9670   -6.9670   -6.9670   -6.5854   -6.5854   -6.1485   -6.1485   -6.1485   -6.1485
   -6.1485   -6.1485   -6.1485   -6.1485   -6.0497   -6.0497   -5.9106   -5.9106   -5.9106   -5.9106
   -5.9106   -5.9106   -5.9106   -5.9106   -5.7874   -5.7874   -5.7874   -5.7874   -5.7874   -5.7874
   -5.7874   -5.7874   -5.6997   -5.6997   -5.6997   -5.6997   -5.6997   -5.6997   -5.6997   -5.6997
   -5.4995   -5.4995   -5.4995   -5.4995   -5.4995   -5.4995   -5.4995   -5.4995   -5.2914   -5.2914
   -5.2914   -5.2914   -5.2237   -5.2237   -5.2237   -5.2237   -5.2237   -5.2237   -5.2237   -5.2237
   -5.2103   -5.2103   -5.0069   -5.0069   -5.0069   -5.0069   -5.0069   -5.0069   -5.0069   -5.0069
   -4.7874   -4.7874   -3.6356   -3.6356   -3.6356   -3.6356   -3.6356   -3.6356   -3.6356   -3.6356
   -0.6948   -0.6948   -0.6948   -0.6948   -0.6948   -0.6948   -0.6948   -0.6948    0.9642    0.9642
    0.9642    0.9642    0.9642    0.9642    0.9642    0.9642    0.9934    0.9934    0.9934    0.9934
    0.9934    0.9934    0.9934    0.9934    3.1894    3.1894    3.1894    3.1894    3.1894    3.1894
    3.1894    3.1894    5.9035    5.9035    5.9035    5.9035    5.9035    5.9035    5.9035    5.9035
    8.1659    8.1659    8.1659    8.1659    8.1659    8.1659    8.1659    8.1659    9.5601    9.5601
    9.5601    9.5601    9.5601    9.5601    9.5601    9.5601   10.0590   10.0590   10.0590   10.0590
   10.0590   10.0590   10.0590   10.0590   11.0235   11.0235   11.0235   11.0235   11.0465   11.0465
   13.0936   13.0936   13.0936   13.0936   13.0936   13.0936   13.0936   13.0936   13.3416   13.3416
   13.3416   13.3416   13.3416   13.3416   13.3416   13.3416   15.3957   15.3957   15.3957   15.3957
   15.3957   15.3957   15.3957   15.3957   15.6302   15.6302   15.6302   15.6302   15.6302   15.6302
   15.6302   15.6302   19.5483   19.5483   19.5483   19.5483   19.5483   19.5483   19.5483   19.5483
   20.9504   20.9504   20.9504   20.9504   21.1954   21.1954   21.1954   21.1954   21.1954   21.1954
   21.1954   21.1954   23.6078   23.6078
  22  1  -11.3794  -11.3794  -11.3794  -11.3794  -10.0149  -10.0149  -10.0149  -10.0149  -10.0149  -10.0149
         -10.0149  -10.0149   -9.9545   -9.9545   -9.9545   -9.9545   -9.6237   -9.6237   -9.6237   -9.6237
   -9.5420   -9.5420   -9.5420   -9.5420   -9.5419   -9.5419   -9.5419   -9.5419   -9.1226   -9.1226
   -9.1226   -9.1226   -9.0594   -9.0594   -9.0594   -9.0594   -9.0594   -9.0594   -9.0594   -9.0594
   -9.0174   -9.0174   -9.0174   -9.0174   -9.0174   -9.0174   -9.0174   -9.0174   -8.5450   -8.5450
   -8.5450   -8.5450   -8.5450   -8.5450   -8.5450   -8.5450   -8.2170   -8.2170   -8.2170   -8.2170
   -8.2170   -8.2170   -8.2170   -8.2170   -8.0028   -8.0028   -8.0028   -8.0028   -7.9286   -7.9286
   -7.9284   -7.9284   -7.7260   -7.7260   -7.7260   -7.7260   -7.7260   -7.7260   -7.7260   -7.7260
   -7.6193   -7.6193   -7.6193   -7.6193   -7.6193   -7.6193   -7.6193   -7.6193   -7.4625   -7.4625
   -7.4624   -7.4624   -7.4349   -7.4349   -7.4349   -7.4349   -7.4303   -7.4303   -7.4303   -7.4303
   -7.0660   -7.0660   -7.0660   -7.0660   -7.0660   -7.0660   -7.0660   -7.0660   -6.9216   -6.9216
   -6.9216   -6.9216   -6.9216   -6.9216   -6.9216   -6.9216   -6.8733   -6.8733   -6.8733   -6.8733
   -6.6502   -6.6502   -6.6502   -6.6502   -6.6502   -6.6502   -6.6502   -6.6502   -6.6178   -6.6178
   -6.6176   -6.6176   -6.3636   -6.3636   -6.3636   -6.3636   -6.0941   -6.0941   -6.0941   -6.0941
   -6.0867   -6.0867   -6.0867   -6.0867   -5.9998   -5.9998   -5.9998   -5.9998   -5.9997   -5.9997
   -5.9997   -5.9997   -5.5788   -5.5788   -5.5788   -5.5788   -5.5788   -5.5788   -5.5788   -5.5788
   -5.4495   -5.4495   -5.4494   -5.4494   -5.1738   -5.1738   -5.1738   -5.1738   -5.1738   -5.1738
   -5.1738   -5.1738   -4.9559   -4.9559   -4.9559   -4.9559   -4.9559   -4.9559   -4.9559   -4.9559
   -4.8862   -4.8862   -4.8862   -4.8862   -4.8861   -4.8861   -4.8861   -4.8861   -4.8711   -4.8711
   -4.8711   -4.8711   -3.2362   -3.2362   -3.2362   -3.2362   -2.8645   -2.8645   -2.8645   -2.8645
   -0.9628   -0.9628   -0.9628   -0.9628   -0.9627   -0.9627   -0.9627   -0.9627   -0.1796   -0.1796
   -0.1796   -0.1796   -0.1796   -0.1796   -0.1796   -0.1796    1.8368    1.8368    1.8368    1.8368
    1.8368    1.8368    1.8368    1.8368    2.7526    2.7526    2.7527    2.7527    4.1850    4.1850
    4.1850    4.1850    4.1851    4.1851    4.1851    4.1851    6.4348    6.4348    6.4348    6.4348
    8.5988    8.5988    8.5988    8.5988    8.5988    8.5988    8.5988    8.5988    9.3013    9.3013
    9.3013    9.3013    9.3013    9.3013    9.3013    9.3013   10.8302   10.8302   10.8302   10.8302
   10.8302   10.8302   10.8302   10.8302   11.8443   11.8443   11.8443   11.8443   11.8443   11.8443
   11.8443   11.8443   12.0911   12.0911   12.0911   12.0911   12.2237   12.2237   12.2237   12.2237
   13.7245   13.7245   13.7245   13.7245   13.7245   13.7245   13.7245   13.7245   15.8359   15.8359
   15.8361   15.8361   15.8938   15.8938   15.8938   15.8938   16.2163   16.2163   16.2163   16.2163
   16.2163   16.2163   16.2163   16.2163   19.1414   19.1414   19.1415   19.1415   20.5186   20.5186
   20.5186   20.5186   20.5186   20.5186   20.5186   20.5186   21.2215   21.2215   21.2215   21.2215
   22.7569   22.7569   22.7569   22.7569
  23  1  -11.3794  -11.3794  -11.3794  -11.3794  -10.0149  -10.0149  -10.0149  -10.0149  -10.0149  -10.0149
         -10.0149  -10.0149   -9.9545   -9.9545   -9.9545   -9.9545   -9.6237   -9.6237   -9.6237   -9.6237
   -9.5420   -9.5420   -9.5420   -9.5420   -9.5419   -9.5419   -9.5419   -9.5419   -9.1226   -9.1226
   -9.1226   -9.1226   -9.0594   -9.0594   -9.0594   -9.0594   -9.0594   -9.0594   -9.0594   -9.0594
   -9.0174   -9.0174   -9.0174   -9.0174   -9.0174   -9.0174   -9.0174   -9.0174   -8.5450   -8.5450
   -8.5450   -8.5450   -8.5450   -8.5450   -8.5450   -8.5450   -8.2170   -8.2170   -8.2170   -8.2170
   -8.2170   -8.2170   -8.2170   -8.2170   -8.0028   -8.0028   -8.0028   -8.0028   -7.9286   -7.9286
   -7.9284   -7.9284   -7.7260   -7.7260   -7.7260   -7.7260   -7.7260   -7.7260   -7.7260   -7.7260
   -7.6193   -7.6193   -7.6193   -7.6193   -7.6193   -7.6193   -7.6193   -7.6193   -7.4625   -7.4625
   -7.4624   -7.4624   -7.4349   -7.4349   -7.4349   -7.4349   -7.4303   -7.4303   -7.4303   -7.4303
   -7.0660   -7.0660   -7.0660   -7.0660   -7.0660   -7.0660   -7.0660   -7.0660   -6.9216   -6.9216
   -6.9216   -6.9216   -6.9216   -6.9216   -6.9216   -6.9216   -6.8733   -6.8733   -6.8733   -6.8733
   -6.6502   -6.6502   -6.6502   -6.6502   -6.6502   -6.6502   -6.6502   -6.6502   -6.6178   -6.6178
   -6.6176   -6.6176   -6.3636   -6.3636   -6.3636   -6.3636   -6.0941   -6.0941   -6.0941   -6.0941
   -6.0867   -6.0867   -6.0867   -6.0867   -5.9998   -5.9998   -5.9998   -5.9998   -5.9997   -5.9997
   -5.9997   -5.9997   -5.5788   -5.5788   -5.5788   -5.5788   -5.5788   -5.5788   -5.5788   -5.5788
   -5.4495   -5.4495   -5.4494   -5.4494   -5.1738   -5.1738   -5.1738   -5.1738   -5.1738   -5.1738
   -5.1738   -5.1738   -4.9559   -4.9559   -4.9559   -4.9559   -4.9559   -4.9559   -4.9559   -4.9559
   -4.8862   -4.8862   -4.8862   -4.8862   -4.8861   -4.8861   -4.8861   -4.8861   -4.8711   -4.8711
   -4.8711   -4.8711   -3.2362   -3.2362   -3.2362   -3.2362   -2.8645   -2.8645   -2.8645   -2.8645
   -0.9628   -0.9628   -0.9628   -0.9628   -0.9627   -0.9627   -0.9627   -0.9627   -0.1796   -0.1796
   -0.1796   -0.1796   -0.1796   -0.1796   -0.1796   -0.1796    1.8368    1.8368    1.8368    1.8368
    1.8368    1.8368    1.8368    1.8368    2.7526    2.7526    2.7527    2.7527    4.1850    4.1850
    4.1850    4.1850    4.1851    4.1851    4.1851    4.1851    6.4348    6.4348    6.4348    6.4348
    8.5988    8.5988    8.5988    8.5988    8.5988    8.5988    8.5988    8.5988    9.3013    9.3013
    9.3013    9.3013    9.3013    9.3013    9.3013    9.3013   10.8302   10.8302   10.8302   10.8302
   10.8302   10.8302   10.8302   10.8302   11.8443   11.8443   11.8443   11.8443   11.8443   11.8443
   11.8443   11.8443   12.0911   12.0911   12.0911   12.0911   12.2237   12.2237   12.2237   12.2237
   13.7245   13.7245   13.7245   13.7245   13.7245   13.7245   13.7245   13.7245   15.8359   15.8359
   15.8361   15.8361   15.8938   15.8938   15.8938   15.8938   16.2163   16.2163   16.2163   16.2163
   16.2163   16.2163   16.2163   16.2163   19.1414   19.1414   19.1415   19.1415   20.5186   20.5186
   20.5186   20.5186   20.5186   20.5186   20.5186   20.5186   21.2215   21.2215   21.2215   21.2215
   22.7569   22.7569   22.7569   22.7569
  24  1  -10.8774  -10.8774  -10.8774  -10.8774  -10.8774  -10.8774  -10.8774  -10.8774   -9.6420   -9.6420
          -9.6418   -9.6418   -9.6215   -9.6215   -9.6215   -9.6215   -9.6215   -9.6215   -9.6215   -9.6215
   -9.6214   -9.6214   -9.6214   -9.6214   -9.6214   -9.6214   -9.6214   -9.6214   -9.4117   -9.4117
   -9.4117   -9.4117   -9.0917   -9.0917   -9.0917   -9.0917   -9.0917   -9.0917   -9.0917   -9.0917
   -8.9240   -8.9240   -8.9240   -8.9240   -8.9240   -8.9240   -8.9240   -8.9240   -8.2844   -8.2844
   -8.2844   -8.2844   -8.2844   -8.2844   -8.2844   -8.2844   -8.2130   -8.2130   -8.2130   -8.2130
   -8.2130   -8.2130   -8.2130   -8.2130   -8.2130   -8.2130   -8.2130   -8.2130   -8.2130   -8.2130
   -8.2130   -8.2130   -7.7718   -7.7718   -7.7718   -7.7718   -7.7718   -7.7718   -7.7718   -7.7718
   -7.4673   -7.4673   -7.4673   -7.4673   -7.4673   -7.4673   -7.4673   -7.4673   -7.4672   -7.4672
   -7.4672   -7.4672   -7.4672   -7.4672   -7.4672   -7.4672   -7.3990   -7.3990   -7.3990   -7.3990
   -7.3990   -7.3990   -7.3990   -7.3990   -7.1222   -7.1222   -7.1222   -7.1222   -7.1222   -7.1222
   -7.1222   -7.1222   -6.9834   -6.9834   -6.9834   -6.9834   -6.9834   -6.9834   -6.9834   -6.9834
   -6.9834   -6.9834   -6.9834   -6.9834   -6.9834   -6.9834   -6.9834   -6.9834   -6.6888   -6.6888
   -6.6888   -6.6888   -6.6888   -6.6888   -6.6888   -6.6888   -6.3084   -6.3084   -6.3084   -6.3084
   -5.8679   -5.8679   -5.8679   -5.8679   -5.8679   -5.8679   -5.8679   -5.8679   -5.5942   -5.5942
   -5.5942   -5.5942   -5.5942   -5.5942   -5.5942   -5.5942   -5.5758   -5.5758   -5.5755   -5.5755
   -5.3095   -5.3095   -5.3095   -5.3095   -5.3095   -5.3095   -5.3095   -5.3095   -4.9644   -4.9644
   -4.9644   -4.9644   -4.9644   -4.9644   -4.9644   -4.9644   -4.9643   -4.9643   -4.9643   -4.9643
   -4.9643   -4.9643   -4.9643   -4.9643   -4.6383   -4.6383   -4.6383   -4.6383   -2.4996   -2.4996
   -2.4996   -2.4996   -2.4996   -2.4996   -2.4996   -2.4996   -2.4996   -2.4996   -2.4996   -2.4996
   -2.4996   -2.4996   -2.4996   -2.4996   -1.9817   -1.9817   -1.9817   -1.9817   -1.9817   -1.9817
   -1.9817   -1.9817    0.5663    0.5663    0.5663    0.5663    3.0569    3.0569    3.0569    3.0569
    3.0569    3.0569    3.0569    3.0569    3.0571    3.0571    3.0571    3.0571    3.0571    3.0571
    3.0571    3.0571    3.8930    3.8930    3.8930    3.8930    7.4262    7.4262    7.4262    7.4262
    7.4309    7.4309    7.4309    7.4309    7.4309    7.4309    7.4309    7.4309    7.8099    7.8099
    7.8099    7.8099    7.8099    7.8099    7.8099    7.8099    8.7089    8.7089    8.7090    8.7090
   12.8642   12.8642   12.8642   12.8642   12.8642   12.8642   12.8642   12.8642   14.8176   14.8176
   14.8176   14.8176   14.8176   14.8176   14.8176   14.8176   14.8178   14.8178   14.8178   14.8178
   14.8178   14.8178   14.8178   14.8178   15.9787   15.9787   15.9787   15.9787   15.9787   15.9787
   15.9787   15.9787   15.9788   15.9788   15.9788   15.9788   15.9788   15.9788   15.9788   15.9788
   16.1047   16.1047   16.1047   16.1047   16.1047   16.1047   16.1047   16.1047   16.1987   16.1987
   16.1987   16.1987   16.1987   16.1987   16.1987   16.1987   23.0726   23.0726   23.0726   23.0726
   23.0726   23.0726   23.0726   23.0726
siesta: Fermi energy =      -2.805558 eV

siesta: Program's energy decomposition (eV):
siesta: Ebs     =     -2874.086724
siesta: Eions   =     34209.253345
siesta: Ena     =       120.841134
siesta: Ekin    =     23518.245233
siesta: Enl     =    -15207.738546
siesta: Eso     =         0.000000
siesta: Edftu   =         0.000000
siesta: DEna    =        32.714342
siesta: DUscf   =        13.182952
siesta: DUext   =         0.000000
siesta: Ex      =    -24377.923224
siesta: Ec      =     -1491.052750
siesta: Exc     =    -25868.975973
siesta: eta*DQ  =         0.000000
siesta: Emadel  =         0.000000
siesta: Emeta   =         0.000000
siesta: Emolmec =         0.000000
siesta: Ekinion =         0.000000
siesta: Eharris =    -51600.984203
siesta: Etot    =    -51600.984203
siesta: FreeEng =    -51601.016683

siesta: Final energy (eV):
siesta:  Band Struct. =   -2874.086724
siesta:       Kinetic =   23518.245233
siesta:       Hartree =    3680.677624
siesta:       Edftu   =       0.000000
siesta:       Eso     =       0.000000
siesta:    Ext. field =       0.000000
siesta:         Exch. =  -24377.923224
siesta:         Corr. =   -1491.052750
siesta:   Exch.-corr. =  -25868.975973
siesta:  Ion-electron =  -25282.055297
siesta:       Ion-ion =  -27648.875790
siesta:       Ekinion =       0.000000
siesta:         Total =  -51600.984203
siesta:         Fermi =      -2.805558

siesta: Stress tensor (static) (eV/Ang**3):
siesta:    -0.136408   -0.000000    0.000000
siesta:    -0.000000   -0.136408    0.000000
siesta:     0.000000    0.000000   -0.125572

siesta: Cell volume =        610.445933 Ang**3

siesta: Pressure (static):
siesta:                Solid            Molecule  Units
siesta:           0.00144632          0.00144632  Ry/Bohr**3
siesta:           0.13279626          0.13279626  eV/Ang**3
siesta:         212.76536296        212.76536283  kBar
(Free)E+ p_basis*V_orbitals  =      -51576.071432
(Free)Eharris+ p_basis*V_orbitals  =      -51576.071432

cite: Please see "ts_au_100_elec_3x3.bib" for an exhaustive BiBTeX file.
cite: Please clearly indicate Siesta version in published work: 5.0.0-alpha-56-g943f9ccc9
cite: This calculation has made use of the following articles
cite: which are encouraged to be cited in a published work.
        Primary SIESTA paper
          DOI: www.doi.org/10.1088/0953-8984/14/11/302


>> End of run:  29-APR-2022  10:04:18
Job completed
