
                           ***********************       
                           *  WELCOME TO SIESTA  *       
                           ***********************       

reinit: Reading from standard input
reinit: Dumped input in INPUT_TMP.33978
************************** Dump of input data file ****************************
#
# FDF for a BN sheet
#
SystemName          BN-2 atom
SystemLabel         BN
NumberOfSpecies     2
#NumberOfAtoms       2
%block ChemicalSpeciesLabel
 1  5  B 10.811
 2  7  N 14.0067
%endblock ChemicalSpeciesLabel
PAO.BasisSize       SZ
XC.functional LDA
XC.authors    CA
MeshCutoff          200.0 Ry
MaxSCFIterations    500
DM.MixingWeight      0.1
DM.NumberPulay       5
DM.Tolerance         1.d-5
SolutionMethod       diagon
DM.UseSaveDM  	     .true.	
#SuperCell_1          1
#SuperCell_2          1
#SuperCell_3          0
#AtomicCoordinatesFormat  ScaledCartesian
#%block AtomicCoordinatesAndAtomicSpecies
#	-0.00000027   -0.00000047   -0.00000000   1  10.811
#	1.26872886    0.73250124   -0.00000000   2 14.0067
#%endblock AtomicCoordinatesAndAtomicSpecies
%include FC.fdf
AllocReportLevel   2
%block kgrid_Monkhorst_Pack
	6	0	0	0.0
	0	6	0	0.0
	0	0	1	0.0
%endblock kgrid_Monkhorst_Pack
#LatticeConstant     1 Ang
#%block LatticeVectors
#        2.537457   -0.000000    0.000000
#        1.268729    2.197503   -0.000000
#        0.000000   -0.000000    6.679152
#%endblock LatticeVectors
************************** End of input data file *****************************

reinit: -----------------------------------------------------------------------
reinit: System Name: BN-2 atom
reinit: -----------------------------------------------------------------------
reinit: System Label: BN
reinit: -----------------------------------------------------------------------
Siesta Version: trunk-587
Architecture  : unknown
Compiler flags: gfortran -g -O2 -fPIC -ftree-vectorize -fbacktrace -fbounds-check -g -fcheck==all
PP flags      : -DFC_HAVE_ABORT
Libraries     : libsiestaLAPACK.a libsiestaBLAS.a
SERIAL version

* Running in serial mode
>> Start of run:  13-FEB-2017  12:31:07

initatom: Reading input for the pseudopotentials and atomic orbitals ----------
Species number:   1 Atomic number:    5 Label: B
Species number:   2 Atomic number:    7 Label: N

Ground state valence configuration:   2s02  2p01
Reading pseudopotential information in formatted form from B.psf

Valence configuration for pseudopotential generation:
2s( 2.00) rc: 1.99
2p( 1.00) rc: 1.99
3d( 0.00) rc: 1.99
4f( 0.00) rc: 1.99
Ground state valence configuration:   2s02  2p03
Reading pseudopotential information in formatted form from N.psf

Valence configuration for pseudopotential generation:
2s( 2.00) rc: 1.74
2p( 3.00) rc: 1.74
3d( 0.00) rc: 1.74
4f( 0.00) rc: 1.74
For B, standard SIESTA heuristics set lmxkb to 2
 (one more than the basis l, including polarization orbitals).
Use PS.lmax or PS.KBprojectors blocks to override.
For N, standard SIESTA heuristics set lmxkb to 2
 (one more than the basis l, including polarization orbitals).
Use PS.lmax or PS.KBprojectors blocks to override.

<basis_specs>
===============================================================================
B                    Z=   5    Mass=  10.810        Charge= 0.17977+309
Lmxo=1 Lmxkb= 2    BasisType=split      Semic=F
L=0  Nsemic=0  Cnfigmx=2
          n=1  nzeta=1  polorb=0
            splnorm:   0.15000    
               vcte:    0.0000    
               rinn:    0.0000    
               qcoe:    0.0000    
               qyuk:    0.0000    
               qwid:   0.10000E-01
                rcs:    0.0000    
            lambdas:    1.0000    
L=1  Nsemic=0  Cnfigmx=2
          n=1  nzeta=1  polorb=0
            splnorm:   0.15000    
               vcte:    0.0000    
               rinn:    0.0000    
               qcoe:    0.0000    
               qyuk:    0.0000    
               qwid:   0.10000E-01
                rcs:    0.0000    
            lambdas:    1.0000    
-------------------------------------------------------------------------------
L=0  Nkbl=1  erefs: 0.17977+309
L=1  Nkbl=1  erefs: 0.17977+309
L=2  Nkbl=1  erefs: 0.17977+309
===============================================================================
</basis_specs>

atom: Called for B                     (Z =   5)

read_vps: Pseudopotential generation method:
read_vps: ATM3.3.2  Troullier-Martins                       
Total valence charge:    3.00000

xc_check: Exchange-correlation functional:
xc_check: Ceperley-Alder
V l=0 = -2*Zval/r beyond r=  1.9696
V l=1 = -2*Zval/r beyond r=  1.9696
V l=2 = -2*Zval/r beyond r=  1.9696
All V_l potentials equal beyond r=  1.9696
This should be close to max(r_c) in ps generation
All pots = -2*Zval/r beyond r=  1.9696

VLOCAL1: 99.0% of the norm of Vloc inside     11.190 Ry
VLOCAL1: 99.9% of the norm of Vloc inside     25.502 Ry
atom: Maximum radius for 4*pi*r*r*local-pseudopot. charge    2.34633
atom: Maximum radius for r*vlocal+2*Zval:    2.01943
GHOST: No ghost state for L =  0
GHOST: No ghost state for L =  1
GHOST: No ghost state for L =  2

KBgen: Kleinman-Bylander projectors: 
   l= 0   rc=  2.204140   el= -0.689820   Ekb=  2.799048   kbcos=  0.322597
   l= 1   rc=  2.204140   el= -0.273582   Ekb= -2.485131   kbcos= -0.367909
   l= 2   rc=  2.375846   el=  0.002410   Ekb= -0.625064   kbcos= -0.020974

KBgen: Total number of  Kleinman-Bylander projectors:    9
atom: -------------------------------------------------------------------------

atom: SANKEY-TYPE ORBITALS:

SPLIT: Orbitals with angular momentum L= 0

SPLIT: Basis orbitals for state 2s

SPLIT: PAO cut-off radius determined from an
SPLIT: energy shift=  0.020000 Ry

   izeta = 1
                 lambda =    1.000000
                     rc =    4.906010
                 energy =   -0.672077
                kinetic =    0.586165
    potential(screened) =   -1.258241
       potential(ionic) =   -3.318920

SPLIT: Orbitals with angular momentum L= 1

SPLIT: Basis orbitals for state 2p

SPLIT: PAO cut-off radius determined from an
SPLIT: energy shift=  0.020000 Ry

   izeta = 1
                 lambda =    1.000000
                     rc =    5.700051
                 energy =   -0.254268
                kinetic =    1.576866
    potential(screened) =   -1.831134
       potential(ionic) =   -3.817568
atom: Total number of Sankey-type orbitals:  4

atm_pop: Valence configuration (for local Pseudopot. screening):
 2s( 2.00)                                                            
 2p( 1.00)                                                            
Vna: chval, zval:    3.00000   3.00000

Vna:  Cut-off radius for the neutral-atom potential:   5.700051

atom: _________________________________________________________________________

<basis_specs>
===============================================================================
N                    Z=   7    Mass=  14.010        Charge= 0.17977+309
Lmxo=1 Lmxkb= 2    BasisType=split      Semic=F
L=0  Nsemic=0  Cnfigmx=2
          n=1  nzeta=1  polorb=0
            splnorm:   0.15000    
               vcte:    0.0000    
               rinn:    0.0000    
               qcoe:    0.0000    
               qyuk:    0.0000    
               qwid:   0.10000E-01
                rcs:    0.0000    
            lambdas:    1.0000    
L=1  Nsemic=0  Cnfigmx=2
          n=1  nzeta=1  polorb=0
            splnorm:   0.15000    
               vcte:    0.0000    
               rinn:    0.0000    
               qcoe:    0.0000    
               qyuk:    0.0000    
               qwid:   0.10000E-01
                rcs:    0.0000    
            lambdas:    1.0000    
-------------------------------------------------------------------------------
L=0  Nkbl=1  erefs: 0.17977+309
L=1  Nkbl=1  erefs: 0.17977+309
L=2  Nkbl=1  erefs: 0.17977+309
===============================================================================
</basis_specs>

atom: Called for N                     (Z =   7)

read_vps: Pseudopotential generation method:
read_vps: ATM3.3.2  Troullier-Martins                       
Total valence charge:    5.00000

xc_check: Exchange-correlation functional:
xc_check: Ceperley-Alder
V l=0 = -2*Zval/r beyond r=  1.7184
V l=1 = -2*Zval/r beyond r=  1.7184
V l=2 = -2*Zval/r beyond r=  1.7184
All V_l potentials equal beyond r=  1.7184
This should be close to max(r_c) in ps generation
All pots = -2*Zval/r beyond r=  1.7184

VLOCAL1: 99.0% of the norm of Vloc inside     14.700 Ry
VLOCAL1: 99.9% of the norm of Vloc inside     33.502 Ry
atom: Maximum radius for 4*pi*r*r*local-pseudopot. charge    2.07284
atom: Maximum radius for r*vlocal+2*Zval:    1.80650
GHOST: No ghost state for L =  0
GHOST: No ghost state for L =  1
GHOST: No ghost state for L =  2

KBgen: Kleinman-Bylander projectors: 
   l= 0   rc=  1.923037   el= -1.352239   Ekb=  3.172975   kbcos=  0.267359
   l= 1   rc=  1.875548   el= -0.532623   Ekb= -5.099421   kbcos= -0.501360
   l= 2   rc=  1.996534   el=  0.002346   Ekb= -1.142886   kbcos= -0.011476

KBgen: Total number of  Kleinman-Bylander projectors:    9
atom: -------------------------------------------------------------------------

atom: SANKEY-TYPE ORBITALS:

SPLIT: Orbitals with angular momentum L= 0

SPLIT: Basis orbitals for state 2s

SPLIT: PAO cut-off radius determined from an
SPLIT: energy shift=  0.020000 Ry

   izeta = 1
                 lambda =    1.000000
                     rc =    3.683980
                 energy =   -1.333777
                kinetic =    1.196945
    potential(screened) =   -2.530722
       potential(ionic) =   -8.128785

SPLIT: Orbitals with angular momentum L= 1

SPLIT: Basis orbitals for state 2p

SPLIT: PAO cut-off radius determined from an
SPLIT: energy shift=  0.020000 Ry

   izeta = 1
                 lambda =    1.000000
                     rc =    4.280232
                 energy =   -0.512467
                kinetic =    3.438273
    potential(screened) =   -3.950740
       potential(ionic) =   -9.360253
atom: Total number of Sankey-type orbitals:  4

atm_pop: Valence configuration (for local Pseudopot. screening):
 2s( 2.00)                                                            
 2p( 3.00)                                                            
Vna: chval, zval:    5.00000   5.00000

Vna:  Cut-off radius for the neutral-atom potential:   4.280232

atom: _________________________________________________________________________

prinput: Basis input ----------------------------------------------------------

PAO.BasisType split     

%block ChemicalSpeciesLabel
    1    5 B                       # Species index, atomic number, species label
    2    7 N                       # Species index, atomic number, species label
%endblock ChemicalSpeciesLabel

%block PAO.Basis                 # Define Basis set
B                     2                    # Species label, number of l-shells
 n=2   0   1                         # n, l, Nzeta 
   4.906   
   1.000   
 n=2   1   1                         # n, l, Nzeta 
   5.700   
   1.000   
N                     2                    # Species label, number of l-shells
 n=2   0   1                         # n, l, Nzeta 
   3.684   
   1.000   
 n=2   1   1                         # n, l, Nzeta 
   4.280   
   1.000   
%endblock PAO.Basis

prinput: ----------------------------------------------------------------------

coor:   Atomic-coordinates input format  =     Cartesian coordinates
coor:                                            (in Bohr units)

siesta: Atomic coordinates (Bohr) and species
siesta:     -7.19265  -4.15268   0.00000  1        1
siesta:     -4.79510  -2.76845   0.00000  2        2
siesta:     -4.79510  -0.00000   0.00000  1        3
siesta:     -2.39755   1.38423   0.00000  2        4
siesta:     -2.39755   4.15268   0.00000  1        5
siesta:      0.00000   5.53691   0.00000  2        6
siesta:     -2.39755  -4.15268   0.00000  1        7
siesta:     -0.00000  -2.76845   0.00000  2        8
siesta:     -0.00000  -0.00000   0.00000  1        9
siesta:      2.39755   1.38423   0.00000  2       10
siesta:      2.39755   4.15268   0.00000  1       11
siesta:      4.79510   5.53691   0.00000  2       12
siesta:      2.39755  -4.15268   0.00000  1       13
siesta:      4.79510  -2.76845   0.00000  2       14
siesta:      4.79510  -0.00000   0.00000  1       15
siesta:      7.19265   1.38423   0.00000  2       16
siesta:      7.19265   4.15268   0.00000  1       17
siesta:      9.59020   5.53691   0.00000  2       18

siesta: System type = slab      

initatomlists: Number of atoms, orbitals, and projectors:     18    72   162

siesta: ******************** Simulation parameters ****************************
siesta:
siesta: The following are some of the parameters of the simulation.
siesta: A complete list of the parameters used, including default values,
siesta: can be found in file out.fdf
siesta:
redata: Spin configuration                          = none
redata: Number of spin components                   = 1
redata: Time-Reversal Symmetry                      = T
redata: Spin-spiral                                 = F
redata: Long output                                 =   F
redata: Number of Atomic Species                    =        2
redata: Charge density info will appear in .RHO file
redata: Write Mulliken Pop.                         = NO
redata: Mesh Cutoff                                 =   200.0000 Ry
redata: Net charge of the system                    =     0.0000 |e|
redata: Min. number of SCF Iter                     =        0
redata: Max. number of SCF Iter                     =      500
redata: SCF mix quantity                            = Hamiltonian
redata: Mix DM or H after convergence               =   F
redata: Recompute H after scf cycle                 =   F
redata: Mix DM in first SCF step                    =   T
redata: Write Pulay info on disk                    =   F
redata: New DM Mixing Weight                        =     0.1000
redata: New DM Occupancy tolerance                  = 0.000000000001
redata: No kicks to SCF
redata: DM Mixing Weight for Kicks                  =     0.5000
redata: Require Harris convergence for SCF          =   F
redata: Harris energy tolerance for SCF             =     0.000100 eV
redata: Require DM convergence for SCF              =   T
redata: DM tolerance for SCF                        =     0.0000
redata: Require EDM convergence for SCF             =   F
redata: EDM tolerance for SCF                       =     0.001000 eV
redata: Require H convergence for SCF               =   T
redata: Hamiltonian tolerance for SCF               =     0.001000 eV
redata: Require (free) Energy convergence for SCF   =   F
redata: (free) Energy tolerance for SCF             =     0.000100 eV
redata: Using Saved Data (generic)                  =   F
redata: Use continuation files for DM               =   T
redata: Neglect nonoverlap interactions             =   F
redata: Method of Calculation                       = Diagonalization
redata: Divide and Conquer                          =   T
redata: Electronic Temperature                      =   299.9869 K
redata: Fix the spin of the system                  =   F
redata: Max. number of TDED Iter         =          =        1
redata: Write .TDWF and .DM after time steps=       =      100
redata: Dynamics option                             = Single-point calculation
mix.SCF: Pulay mixing                            = Pulay
mix.SCF:    Variant                              = stable
mix.SCF:    History steps                        = 5
mix.SCF:    Linear mixing weight                 =     0.100000
mix.SCF:    Mixing weight                        =     0.100000
mix.SCF:    SVD condition                        = 0.1000E-07
redata: ***********************************************************************

%block SCF.Mixers
  Pulay                   
%endblock SCF.Mixers

%block SCF.Mixer.Pulay
  # Mixing method
  method pulay
  variant stable

  # Mixing options
  weight 0.1000
  weight.linear 0.1000
  history 5
  restart 0
  restart.save 1

  # Continuation options
%endblock SCF.Mixer.Pulay

DM_history_depth set to one: no extrapolation allowed by default for geometry relaxation
Size of DM history Fstack: 1
Total number of electrons:    72.000000
Total ionic charge:    72.000000
k-point displ. along   1 input, could be:     0.00    0.50
k-point displ. along   2 input, could be:     0.00    0.50
 Kpoints in:           24 . Kpoints trimmed:           22

siesta: k-grid: Number of k-points =    22
siesta: k-grid: Cutoff (effective) =     3.340 Ang
siesta: k-grid: Supercell and displacements
siesta: k-grid:    6   0   0      0.000
siesta: k-grid:    0   6   0      0.000
siesta: k-grid:    0   0   1      0.000

superc: Internal auxiliary supercell:     3 x     3 x     1  =       9
superc: Number of atoms, orbitals, and projectors:    162    648   1458


                     ====================================
                        Single-point calculation
                     ====================================

superc: Internal auxiliary supercell:     3 x     3 x     1  =       9
superc: Number of atoms, orbitals, and projectors:    162    648   1458

outcell: Unit cell vectors (Ang):
        7.612371   -0.000000    0.000000
        3.806187    6.592509   -0.000000
        0.000000   -0.000000    6.679152

outcell: Cell vector modules (Ang)   :    7.612371    7.612374    6.679152
outcell: Cell angles (23,13,12) (deg):     90.0000     90.0000     60.0000
outcell: Cell volume (Ang**3)        :    335.1907
<dSpData1D:S at geom step 0
  <sparsity:sparsity for geom step 0
    nrows_g=72 nrows=72 sparsity=2.7743 nnzs=14382, refcount: 7>
  <dData1D:(new from dSpData1D) n=14382, refcount: 1>
refcount: 1>
New_DM. Step:     1
Initializing Density Matrix...
Attempting to read DM from file... Failed...
DM after filling with atomic data:
<dSpData2D:(DM initialized from atoms)
  <sparsity:sparsity for geom step 0
    nrows_g=72 nrows=72 sparsity=2.7743 nnzs=14382, refcount: 8>
  <dData2D:(DMatomic) n=14382 m=1, refcount: 1>
refcount: 1>
No. of atoms with KB's overlaping orbs in proc 0. Max # of overlaps:      56      70
New grid distribution:   1
           1       1:   30    1:   30    1:   30

InitMesh: MESH =    60 x    60 x    60 =      216000
InitMesh: (bp) =    30 x    30 x    30 =       27000
InitMesh: Mesh cutoff (required, used) =   200.000   223.029 Ry
ExtMesh (bp) on 0 =    86 x    86 x    86 =      636056
PhiOnMesh: Number of (b)points on node 0 =                27000
PhiOnMesh: nlist on node 0 =               477414

stepf: Fermi-Dirac step function

siesta: Program's energy decomposition (eV):
siesta: Ebs     =      -956.347358
siesta: Eions   =      4185.345278
siesta: Ena     =       432.038396
siesta: Ekin    =      2159.191192
siesta: Enl     =      -652.953332
siesta: Eso     =         0.000000
siesta: Eldau   =         0.000000
siesta: DEna    =        -8.235473
siesta: DUscf   =         7.052606
siesta: DUext   =         0.000000
siesta: Exc     =      -884.547695
siesta: eta*DQ  =         0.000000
siesta: Emadel  =         0.000000
siesta: Emeta   =         0.000000
siesta: Emolmec =         0.000000
siesta: Ekinion =         0.000000
siesta: Eharris =     -3125.551020
siesta: Etot    =     -3132.799583
siesta: FreeEng =     -3132.799583

        iscf     Eharris(eV)        E_KS(eV)     FreeEng(eV)     dDmax    Ef(eV) dHmax(eV)
   scf:    1    -3125.551020    -3132.799583    -3132.799583  1.708408 -5.241495  1.977447
timer: Routine,Calls,Time,% = IterSCF        1       1.456  39.73
   scf:    2    -3134.613752    -3133.744987    -3133.744987  0.024805 -5.141389  1.472649
   scf:    3    -3135.669152    -3135.025317    -3135.025317  0.073118 -4.874842  0.144266
   scf:    4    -3134.968912    -3134.999466    -3134.999466  0.005622 -5.086385  0.256758
   scf:    5    -3135.051455    -3135.037097    -3135.037097  0.014412 -5.053526  0.004369
   scf:    6    -3135.037025    -3135.037078    -3135.037078  0.000646 -5.055510  0.007425
   scf:    7    -3135.037114    -3135.037104    -3135.037104  0.000381 -5.053568  0.000146
   scf:    8    -3135.037104    -3135.037104    -3135.037104  0.000011 -5.053595  0.000054
   scf:    9    -3135.037104    -3135.037104    -3135.037104  0.000003 -5.053591  0.000001

SCF Convergence by DM+H criterion
max |DM_out - DM_in|         :     0.0000028841
max |H_out - H_in|      (eV) :     0.0000008994
SCF cycle converged after 9 iterations

Using DM_out to compute the final energy and forces
No. of atoms with KB's overlaping orbs in proc 0. Max # of overlaps:      56      70

                     ====================================
                               Linres calculation
                     ====================================

Some linres parameters:
Linres: Initial perturbed atom      9
Linres: Final perturbed atom     10

                     ====================================
                               Linres atom=      9
                     ====================================

WARNING: alloc-realloc-dealloc name mismatch
         Name: dhscf dVxctmp
         Size:          -1728000. Bytes
         Subsequent mismatches will not be reported
LINRES: Density tolerance dDTol=    0.0010
        iscf       dDmax
linres     1     0.21267
linres     2     0.01702
linres     3     0.01061
linres     4     0.00129
linres     5     0.00016
linres     6     0.00014
writedynmat: Saving into a file calculated dynamical matrix

                     ====================================
                               Linres atom=     10
                     ====================================
LINRES: Density tolerance dDTol=    0.0010
        iscf       dDmax
linres     1     0.26527
linres     2     0.02152
linres     3     0.01444
linres     4     0.00148
linres     5     0.00010
linres     6     0.00004
writedynmat: Saving into a file calculated dynamical matrix
 ----- COMPLETE DYNAMICAL MATRIX -----
 Beta:;xyz;Alpha;xyz;dynmat
           1 ;           1 ;           9 ;           1 ;   2.5330194304802291E-002
           1 ;           2 ;           9 ;           1 ;   6.9518276272685128E-008
           1 ;           3 ;           9 ;           1 ;  -3.7127448617408002E-017
           2 ;           1 ;           9 ;           1 ;  -1.8449575574396929E-002
           2 ;           2 ;           9 ;           1 ;  -3.2313677005483904E-002
           2 ;           3 ;           9 ;           1 ;  -5.7978430060409493E-013
           3 ;           1 ;           9 ;           1 ;  0.11703292814646883     
           3 ;           2 ;           9 ;           1 ;   3.2017612104284668E-003
           3 ;           3 ;           9 ;           1 ;  -1.8511140242776561E-013
           4 ;           1 ;           9 ;           1 ;  0.43431214731650586     
           4 ;           2 ;           9 ;           1 ; -0.16404888844496152     
           4 ;           3 ;           9 ;           1 ;  -3.4420716864285966E-012
           5 ;           1 ;           9 ;           1 ;  -1.3881142335723573E-002
           5 ;           2 ;           9 ;           1 ;  -7.8843838402285149E-002
           5 ;           3 ;           9 ;           1 ;   4.3224080707838467E-014
           6 ;           1 ;           9 ;           1 ;   3.7523003562453139E-002
           6 ;           2 ;           9 ;           1 ;   9.3718873100918522E-007
           6 ;           3 ;           9 ;           1 ;   1.3197489191343376E-016
           7 ;           1 ;           9 ;           1 ;  -1.3928692154407596E-002
           7 ;           2 ;           9 ;           1 ;   7.2351654016673067E-002
           7 ;           3 ;           9 ;           1 ;  -2.1162818071081510E-013
           8 ;           1 ;           9 ;           1 ;  0.15016457981883147     
           8 ;           2 ;           9 ;           1 ;   3.7079251882009306E-006
           8 ;           3 ;           9 ;           1 ;   2.6721068138239880E-016
           9 ;           1 ;           9 ;           1 ;  -1.1664402882753135     
           9 ;           2 ;           9 ;           1 ;  -2.7456475408836761E-006
           9 ;           3 ;           9 ;           1 ;   1.0800968155483997E-015
          10 ;           1 ;           9 ;           1 ;  0.43431127713942541     
          10 ;           2 ;           9 ;           1 ;  0.16405489762615225     
          10 ;           3 ;           9 ;           1 ;   3.4369269544730969E-012
          11 ;           1 ;           9 ;           1 ;  -1.3883342508839760E-002
          11 ;           2 ;           9 ;           1 ;   7.8840424457139555E-002
          11 ;           3 ;           9 ;           1 ;  -4.3702471577074644E-014
          12 ;           1 ;           9 ;           1 ;  -1.6043140399538101E-002
          12 ;           2 ;           9 ;           1 ;  -1.9539160343061308E-002
          12 ;           3 ;           9 ;           1 ;   1.6007823926600764E-013
          13 ;           1 ;           9 ;           1 ;  -1.3927404535259090E-002
          13 ;           2 ;           9 ;           1 ;  -7.2352723430129551E-002
          13 ;           3 ;           9 ;           1 ;   2.0918912079867347E-013
          14 ;           1 ;           9 ;           1 ;  -1.8447319135735881E-002
          14 ;           2 ;           9 ;           1 ;   3.2315210997748124E-002
          14 ;           3 ;           9 ;           1 ;   5.7976910372816800E-013
          15 ;           1 ;           9 ;           1 ;  0.11703254872307135     
          15 ;           2 ;           9 ;           1 ;  -3.2068796089114999E-003
          15 ;           3 ;           9 ;           1 ;   1.8364990755741598E-013
          16 ;           1 ;           9 ;           1 ;  -4.9885005799469341E-002
          16 ;           2 ;           9 ;           1 ;   1.0267837992289033E-006
          16 ;           3 ;           9 ;           1 ;   4.8459562240696374E-017
          17 ;           1 ;           9 ;           1 ;   2.5315375143096810E-002
          17 ;           2 ;           9 ;           1 ;  -2.0988884231309177E-007
          17 ;           3 ;           9 ;           1 ;   4.1189773835439578E-017
          18 ;           1 ;           9 ;           1 ;  -1.6044028306346825E-002
          18 ;           2 ;           9 ;           1 ;   1.9538378621963653E-002
          18 ;           3 ;           9 ;           1 ;  -1.6032284527469187E-013
           1 ;           1 ;           9 ;           2 ;  -8.0967099992588758E-009
           1 ;           2 ;           9 ;           2 ;   2.5329496416596459E-002
           1 ;           3 ;           9 ;           2 ;   3.7957522681894346E-018
           2 ;           1 ;           9 ;           2 ;  -3.2314343874451097E-002
           2 ;           2 ;           9 ;           2 ;   1.8863739571537839E-002
           2 ;           3 ;           9 ;           2 ;  -3.3332686659112339E-013
           3 ;           1 ;           9 ;           2 ;  -3.2570128568422700E-003
           3 ;           2 ;           9 ;           2 ;  -5.7549397901211503E-002
           3 ;           3 ;           9 ;           2 ;  -1.6346739542960176E-013
           4 ;           1 ;           9 ;           2 ; -0.16405368703982071     
           4 ;           2 ;           9 ;           2 ;  0.24487797870990849     
           4 ;           3 ;           9 ;           2 ;   2.0179640123772561E-012
           5 ;           1 ;           9 ;           2 ;  -7.2378105695644193E-002
           5 ;           2 ;           9 ;           2 ;   7.3364689739844460E-002
           5 ;           3 ;           9 ;           2 ;   2.2733538605943657E-013
           6 ;           1 ;           9 ;           2 ;   9.0727809521599407E-009
           6 ;           2 ;           9 ;           2 ;  -3.7104412623403159E-002
           6 ;           3 ;           9 ;           2 ;   6.6651436628457733E-013
           7 ;           1 ;           9 ;           2 ;   7.8814673095973259E-002
           7 ;           2 ;           9 ;           2 ;   7.3410714701207413E-002
           7 ;           3 ;           9 ;           2 ;  -1.0445670275749286E-013
           8 ;           1 ;           9 ;           2 ;  -5.6775800163442565E-010
           8 ;           2 ;           9 ;           2 ;  0.52902552977600492     
           8 ;           3 ;           9 ;           2 ;  -4.0327774185777708E-012
           9 ;           1 ;           9 ;           2 ;   1.5780618925038842E-006
           9 ;           2 ;           9 ;           2 ;  -1.1664387236245890     
           9 ;           3 ;           9 ;           2 ;  -2.7506136694640257E-014
          10 ;           1 ;           9 ;           2 ;  0.16405218479966288     
          10 ;           2 ;           9 ;           2 ;  0.24487734853885049     
          10 ;           3 ;           9 ;           2 ;   2.0043667627286052E-012
          11 ;           1 ;           9 ;           2 ;   7.2377975559650740E-002
          11 ;           2 ;           9 ;           2 ;   7.3364498001076722E-002
          11 ;           3 ;           9 ;           2 ;   2.3131180816796586E-013
          12 ;           1 ;           9 ;           2 ;  -1.9537893687380573E-002
          12 ;           2 ;           9 ;           2 ;  -3.8603387902026512E-002
          12 ;           3 ;           9 ;           2 ;  -9.4763206961739162E-014
          13 ;           1 ;           9 ;           2 ;  -7.8814717682438376E-002
          13 ;           2 ;           9 ;           2 ;   7.3410906371173659E-002
          13 ;           3 ;           9 ;           2 ;  -1.0440881399322426E-013
          14 ;           1 ;           9 ;           2 ;   3.2314344955645016E-002
          14 ;           2 ;           9 ;           2 ;   1.8863715949471893E-002
          14 ;           3 ;           9 ;           2 ;  -3.3328816233872062E-013
          15 ;           1 ;           9 ;           2 ;   3.2569599806944634E-003
          15 ;           2 ;           9 ;           2 ;  -5.7549397051698974E-002
          15 ;           3 ;           9 ;           2 ;  -1.6390762271515155E-013
          16 ;           1 ;           9 ;           2 ;   1.9125554005729866E-008
          16 ;           2 ;           9 ;           2 ;  -4.7628977994153502E-003
          16 ;           3 ;           9 ;           2 ;   1.8617200188624498E-013
          17 ;           1 ;           9 ;           2 ;  -9.0420525152358093E-009
          17 ;           2 ;           9 ;           2 ;   2.5315274318808839E-002
          17 ;           3 ;           9 ;           2 ;   1.1333316056954593E-015
          18 ;           1 ;           9 ;           2 ;   1.9537995362602568E-002
          18 ;           2 ;           9 ;           2 ;  -3.8603510637408411E-002
          18 ;           3 ;           9 ;           2 ;  -9.4725251636307469E-014
           1 ;           1 ;           9 ;           3 ;   1.0338002468364309E-010
           1 ;           2 ;           9 ;           3 ;   2.4024996041239120E-010
           1 ;           3 ;           9 ;           3 ;  -1.0753417455453798E-004
           2 ;           1 ;           9 ;           3 ;   4.0880940010372873E-007
           2 ;           2 ;           9 ;           3 ;   2.3591078752112251E-007
           2 ;           3 ;           9 ;           3 ;   8.0692862088634753E-003
           3 ;           1 ;           9 ;           3 ;  -2.1840500317868518E-006
           3 ;           2 ;           9 ;           3 ;   1.3062824448687476E-006
           3 ;           3 ;           9 ;           3 ;  -5.2821513796553346E-003
           4 ;           1 ;           9 ;           3 ;   6.5440394331425943E-006
           4 ;           2 ;           9 ;           3 ;  -3.7799224805988534E-006
           4 ;           3 ;           9 ;           3 ;  0.10885633462529676     
           5 ;           1 ;           9 ;           3 ;  -2.2234923933712861E-006
           5 ;           2 ;           9 ;           3 ;   1.2386133057800548E-006
           5 ;           3 ;           9 ;           3 ;  -5.2820780235423347E-003
           6 ;           1 ;           9 ;           3 ;  -8.8404498764120290E-011
           6 ;           2 ;           9 ;           3 ;  -4.7231115494095961E-007
           6 ;           3 ;           9 ;           3 ;   8.0693013172225304E-003
           7 ;           1 ;           9 ;           3 ;   3.9559899185923847E-008
           7 ;           2 ;           9 ;           3 ;  -2.5449430916461554E-006
           7 ;           3 ;           9 ;           3 ;  -5.2820992434299318E-003
           8 ;           1 ;           9 ;           3 ;  -5.9410584408926518E-010
           8 ;           2 ;           9 ;           3 ;   7.5583054369995844E-006
           8 ;           3 ;           9 ;           3 ;  0.10885623599822078     
           9 ;           1 ;           9 ;           3 ;   4.5213064060766107E-010
           9 ;           2 ;           9 ;           3 ;   1.0031996442220581E-009
           9 ;           3 ;           9 ;           3 ; -0.28476296199628376     
          10 ;           1 ;           9 ;           3 ;  -6.5437074815380989E-006
          10 ;           2 ;           9 ;           3 ;  -3.7790418560770041E-006
          10 ;           3 ;           9 ;           3 ;  0.10885664415497126     
          11 ;           1 ;           9 ;           3 ;   2.2231800697784442E-006
          11 ;           2 ;           9 ;           3 ;   1.2386256210145141E-006
          11 ;           3 ;           9 ;           3 ;  -5.2820979878338984E-003
          12 ;           1 ;           9 ;           3 ;  -2.4461363919343601E-006
          12 ;           2 ;           9 ;           3 ;   1.4126056189133098E-006
          12 ;           3 ;           9 ;           3 ;  -1.1377802718162092E-002
          13 ;           1 ;           9 ;           3 ;  -3.9497839455414099E-008
          13 ;           2 ;           9 ;           3 ;  -2.5451026872746666E-006
          13 ;           3 ;           9 ;           3 ;  -5.2820786883637037E-003
          14 ;           1 ;           9 ;           3 ;  -4.0896255778340086E-007
          14 ;           2 ;           9 ;           3 ;   2.3589729959050617E-007
          14 ;           3 ;           9 ;           3 ;   8.0693092906532256E-003
          15 ;           1 ;           9 ;           3 ;   2.1840746889848355E-006
          15 ;           2 ;           9 ;           3 ;   1.3060303669614147E-006
          15 ;           3 ;           9 ;           3 ;  -5.2821506942706915E-003
          16 ;           1 ;           9 ;           3 ;   1.1283621955622702E-010
          16 ;           2 ;           9 ;           3 ;  -2.8248431489553975E-006
          16 ;           3 ;           9 ;           3 ;  -1.1377804004431905E-002
          17 ;           1 ;           9 ;           3 ;   3.6190624621514449E-011
          17 ;           2 ;           9 ;           3 ;   1.3802100403749518E-010
          17 ;           3 ;           9 ;           3 ;  -1.0744619910190513E-004
          18 ;           1 ;           9 ;           3 ;   2.4461476297529344E-006
          18 ;           2 ;           9 ;           3 ;   1.4124806717100602E-006
          18 ;           3 ;           9 ;           3 ;  -1.1377829829942223E-002
           1 ;           1 ;          10 ;           1 ;  -1.5969513738099950E-002
           1 ;           2 ;          10 ;           1 ;   1.9525615164030365E-002
           1 ;           3 ;          10 ;           1 ;  -1.2632638516714212E-013
           2 ;           1 ;          10 ;           1 ;   1.5682591996345426E-002
           2 ;           2 ;          10 ;           1 ;  -1.2558839607298137E-007
           2 ;           3 ;          10 ;           1 ;   1.2213720083509186E-018
           3 ;           1 ;          10 ;           1 ;  -4.9788021327432604E-002
           3 ;           2 ;          10 ;           1 ;   7.8950084294352875E-007
           3 ;           3 ;          10 ;           1 ;  -3.8059288773952185E-017
           4 ;           1 ;          10 ;           1 ;   9.4623599340308770E-002
           4 ;           2 ;          10 ;           1 ;   9.7798593206036913E-003
           4 ;           3 ;          10 ;           1 ;   9.7481081096908299E-013
           5 ;           1 ;          10 ;           1 ;  -1.8402032669249488E-002
           5 ;           2 ;          10 ;           1 ;   3.2226446963088337E-002
           5 ;           3 ;          10 ;           1 ;  -5.9501694490228367E-015
           6 ;           1 ;          10 ;           1 ;   3.8990525230248579E-003
           6 ;           2 ;          10 ;           1 ;  -6.2187007924902601E-002
           6 ;           3 ;          10 ;           1 ;   1.0874168127502989E-012
           7 ;           1 ;          10 ;           1 ;  -1.5969349595078199E-002
           7 ;           2 ;          10 ;           1 ;  -1.9525949951166303E-002
           7 ;           3 ;          10 ;           1 ;   1.2488552269928813E-013
           8 ;           1 ;          10 ;           1 ;   3.8722037438221305E-003
           8 ;           2 ;          10 ;           1 ;   4.2590047705527281E-002
           8 ;           3 ;          10 ;           1 ;  -1.0300695510768260E-013
           9 ;           1 ;          10 ;           1 ;  0.43416373873131370     
           9 ;           2 ;          10 ;           1 ;  0.16407368401700803     
           9 ;           3 ;          10 ;           1 ;  -2.3919558544640812E-012
          10 ;           1 ;          10 ;           1 ;  -1.1736779142841252     
          10 ;           2 ;          10 ;           1 ;   9.2169723359458335E-006
          10 ;           3 ;          10 ;           1 ;  -2.0294618744945785E-016
          11 ;           1 ;          10 ;           1 ;  0.14997079516238659     
          11 ;           2 ;          10 ;           1 ;  -3.5855534106636658E-006
          11 ;           3 ;          10 ;           1 ;  -8.7131925502842765E-017
          12 ;           1 ;          10 ;           1 ;   3.8965095905962701E-003
          12 ;           2 ;          10 ;           1 ;   6.2190160643885745E-002
          12 ;           3 ;          10 ;           1 ;  -1.0894005762959853E-012
          13 ;           1 ;          10 ;           1 ;   3.7419553469570092E-002
          13 ;           2 ;          10 ;           1 ;  -8.0433849776162001E-007
          13 ;           3 ;          10 ;           1 ;   1.7960477134607352E-016
          14 ;           1 ;          10 ;           1 ;   3.8744999295902815E-003
          14 ;           2 ;          10 ;           1 ;  -4.2588515510483357E-002
          14 ;           3 ;          10 ;           1 ;   1.0977670956235376E-013
          15 ;           1 ;          10 ;           1 ;  0.43416470209744734     
          15 ;           2 ;          10 ;           1 ; -0.16408258145586122     
          15 ;           3 ;          10 ;           1 ;   2.3881237492862161E-012
          16 ;           1 ;          10 ;           1 ;   9.4625771431413555E-002
          16 ;           2 ;          10 ;           1 ;  -9.7783249721349816E-003
          16 ;           3 ;          10 ;           1 ;  -9.7493785005329161E-013
          17 ;           1 ;          10 ;           1 ;  -1.8399243108754092E-002
          17 ;           2 ;          10 ;           1 ;  -3.2228673112886061E-002
          17 ;           3 ;          10 ;           1 ;   5.5282726288089144E-015
          18 ;           1 ;          10 ;           1 ;   1.5639493156414625E-002
          18 ;           2 ;          10 ;           1 ;  -1.6932212389844743E-007
          18 ;           3 ;          10 ;           1 ;  -6.2595773097970217E-017
           1 ;           1 ;          10 ;           2 ;   1.9525292652420655E-002
           1 ;           2 ;          10 ;           2 ;  -3.8515996141903736E-002
           1 ;           3 ;          10 ;           2 ;  -7.5629264465521419E-014
           2 ;           1 ;          10 ;           2 ;  -2.3711493384891498E-008
           2 ;           2 ;          10 ;           2 ;   1.5682842193399778E-002
           2 ;           3 ;          10 ;           2 ;   7.6786191892519227E-017
           3 ;           1 ;          10 ;           2 ;   2.9106321224804049E-008
           3 ;           2 ;          10 ;           2 ;  -4.6960432415465219E-003
           3 ;           3 ;          10 ;           2 ;   1.3609145189808517E-013
           4 ;           1 ;          10 ;           2 ;  -9.8073846432012949E-003
           4 ;           2 ;          10 ;           2 ;  -2.6363184537360466E-002
           4 ;           3 ;          10 ;           2 ;  -6.6470567337883326E-013
           5 ;           1 ;          10 ;           2 ;   3.2227651420191614E-002
           5 ;           2 ;          10 ;           2 ;   1.8813998401270897E-002
           5 ;           3 ;          10 ;           2 ;  -1.0119009441871873E-015
           6 ;           1 ;          10 ;           2 ;  -4.2602625939178358E-002
           6 ;           2 ;          10 ;           2 ;   6.4367291180039171E-002
           6 ;           3 ;          10 ;           2 ;  -4.9517092717471107E-013
           7 ;           1 ;          10 ;           2 ;  -1.9525199802302405E-002
           7 ;           2 ;          10 ;           2 ;  -3.8515872624895614E-002
           7 ;           3 ;          10 ;           2 ;  -7.5205513455809494E-014
           8 ;           1 ;          10 ;           2 ;   6.2173863080013013E-002
           8 ;           2 ;          10 ;           2 ;   6.4390392760049833E-002
           8 ;           3 ;          10 ;           2 ;   1.1903152747272887E-012
           9 ;           1 ;          10 ;           2 ;  0.16407793062557266     
           9 ;           2 ;          10 ;           2 ;  0.24470458906574913     
           9 ;           3 ;          10 ;           2 ;  -1.3806356121701964E-012
          10 ;           1 ;          10 ;           2 ;   1.5959278299504013E-006
          10 ;           2 ;          10 ;           2 ;  -1.1736857838954462     
          10 ;           3 ;          10 ;           2 ;  -6.1918580053043796E-015
          11 ;           1 ;          10 ;           2 ;  -4.3753234746169941E-008
          11 ;           2 ;          10 ;           2 ;  0.52889869624747932     
          11 ;           3 ;          10 ;           2 ;   2.8356252012333858E-012
          12 ;           1 ;          10 ;           2 ;   4.2602579502162188E-002
          12 ;           2 ;          10 ;           2 ;   6.4367143128849141E-002
          12 ;           3 ;          10 ;           2 ;  -4.9502523923536620E-013
          13 ;           1 ;          10 ;           2 ;  -2.3404295183940808E-008
          13 ;           2 ;          10 ;           2 ;  -3.7008016783316194E-002
          13 ;           3 ;          10 ;           2 ;  -2.7036027795304592E-015
          14 ;           1 ;          10 ;           2 ;  -6.2173930998583517E-002
          14 ;           2 ;          10 ;           2 ;   6.4390542339895981E-002
          14 ;           3 ;          10 ;           2 ;   1.1892078965807515E-012
          15 ;           1 ;          10 ;           2 ; -0.16407938723812954     
          15 ;           2 ;          10 ;           2 ;  0.24470521420425298     
          15 ;           3 ;          10 ;           2 ;  -1.3785714749119274E-012
          16 ;           1 ;          10 ;           2 ;   9.8073676741318051E-003
          16 ;           2 ;          10 ;           2 ;  -2.6363184873015255E-002
          16 ;           3 ;          10 ;           2 ;  -6.6566341209165527E-013
          17 ;           1 ;          10 ;           2 ;  -3.2227617944203341E-002
          17 ;           2 ;          10 ;           2 ;   1.8814023179080309E-002
          17 ;           3 ;          10 ;           2 ;  -1.0795027650664195E-015
          18 ;           1 ;          10 ;           2 ;  -2.4137599315041324E-008
          18 ;           2 ;          10 ;           2 ;   1.5639795666403025E-002
          18 ;           3 ;          10 ;           2 ;   3.2610412781627165E-017
           1 ;           1 ;          10 ;           3 ;  -2.8184712673669709E-006
           1 ;           2 ;          10 ;           3 ;  -1.6279398987949002E-006
           1 ;           3 ;          10 ;           3 ;  -1.1376182636678096E-002
           2 ;           1 ;          10 ;           3 ;  -4.6893798152288682E-011
           2 ;           2 ;          10 ;           3 ;  -1.6011301279973630E-010
           2 ;           3 ;          10 ;           3 ;   1.6911721722794662E-003
           3 ;           1 ;          10 ;           3 ;  -4.0166868540315594E-010
           3 ;           2 ;          10 ;           3 ;   3.2538572184367161E-006
           3 ;           3 ;          10 ;           3 ;  -1.1376156814479208E-002
           4 ;           1 ;          10 ;           3 ;  -2.5483537621650908E-006
           4 ;           2 ;          10 ;           3 ;  -1.6819522832470907E-006
           4 ;           3 ;          10 ;           3 ;  -1.9057986008493295E-002
           5 ;           1 ;          10 ;           3 ;   1.2776202436911449E-006
           5 ;           2 ;          10 ;           3 ;  -7.3667390008024393E-007
           5 ;           3 ;          10 ;           3 ;   8.0677315548882376E-003
           6 ;           1 ;          10 ;           3 ;   1.8163469745241791E-007
           6 ;           2 ;          10 ;           3 ;   3.0503340459120554E-006
           6 ;           3 ;          10 ;           3 ;  -1.9057980184496674E-002
           7 ;           1 ;          10 ;           3 ;   2.8178996148350049E-006
           7 ;           2 ;          10 ;           3 ;  -1.6280749333035204E-006
           7 ;           3 ;          10 ;           3 ;  -1.1376155922485549E-002
           8 ;           1 ;          10 ;           3 ;  -2.7314195574478237E-006
           8 ;           2 ;          10 ;           3 ;  -1.3657907374938360E-006
           8 ;           3 ;          10 ;           3 ;  -1.9057969411111330E-002
           9 ;           1 ;          10 ;           3 ;   3.9592418046845311E-006
           9 ;           2 ;          10 ;           3 ;   2.2857526295695392E-006
           9 ;           3 ;          10 ;           3 ;  0.10884988417880843     
          10 ;           1 ;          10 ;           3 ;  -1.8637366981419503E-010
          10 ;           2 ;          10 ;           3 ;  -5.1726987249824536E-010
          10 ;           3 ;          10 ;           3 ; -0.20567993159447220     
          11 ;           1 ;          10 ;           3 ;  -1.1416422948218996E-010
          11 ;           2 ;          10 ;           3 ;  -4.5747352617296955E-006
          11 ;           3 ;          10 ;           3 ;  0.10884947163335384     
          12 ;           1 ;          10 ;           3 ;  -1.8127223234345175E-007
          12 ;           2 ;          10 ;           3 ;   3.0499384278918490E-006
          12 ;           3 ;          10 ;           3 ;  -1.9057969861711845E-002
          13 ;           1 ;          10 ;           3 ;   3.4089961222818857E-010
          13 ;           2 ;          10 ;           3 ;   1.4746689260443964E-006
          13 ;           3 ;          10 ;           3 ;   8.0677244608598018E-003
          14 ;           1 ;          10 ;           3 ;   2.7321103489054997E-006
          14 ;           2 ;          10 ;           3 ;  -1.3665969347083345E-006
          14 ;           3 ;          10 ;           3 ;  -1.9057979773151001E-002
          15 ;           1 ;          10 ;           3 ;  -3.9603967897620437E-006
          15 ;           2 ;          10 ;           3 ;   2.2862893395566523E-006
          15 ;           3 ;          10 ;           3 ;  0.10884957283017228     
          16 ;           1 ;          10 ;           3 ;   2.5492348886554726E-006
          16 ;           2 ;          10 ;           3 ;  -1.6816374627245917E-006
          16 ;           3 ;          10 ;           3 ;  -1.9057985960705293E-002
          17 ;           1 ;          10 ;           3 ;  -1.2775096286039968E-006
          17 ;           2 ;          10 ;           3 ;  -7.3700307370866252E-007
          17 ;           3 ;          10 ;           3 ;   8.0677082040583291E-003
          18 ;           1 ;          10 ;           3 ;   7.3634875165191728E-011
          18 ;           2 ;          10 ;           3 ;   2.0772612421946304E-010
          18 ;           3 ;          10 ;           3 ;   1.6918661619947178E-003
writedynmat: Saving into a file the force constant matrix

siesta: E_KS(eV) =            -3135.0371

siesta: E_KS - E_eggbox =     -3135.0371

siesta: Atomic forces (eV/Ang):
----------------------------------------
   Tot    0.000017    0.000006    0.000000
----------------------------------------
   Max    0.000042
   Res    0.000024    sqrt( Sum f_i^2 / 3N )
----------------------------------------
   Max    0.000042    constrained

Stress-tensor-Voigt (kbar):     1749.26     1749.26        0.09        0.00       -0.00       -0.00
(Free)E + p*V (eV/cell)    -3379.0155
Target enthalpy (eV/cell)    -3135.0371

siesta: Program's energy decomposition (eV):
siesta: Ebs     =     -1023.607718
siesta: Eions   =      4185.345278
siesta: Ena     =       432.038396
siesta: Ekin    =      2095.933654
siesta: Enl     =      -622.391107
siesta: Eso     =         0.000000
siesta: Eldau   =         0.000000
siesta: DEna    =        13.448752
siesta: DUscf   =         0.420605
siesta: DUext   =         0.000000
siesta: Exc     =      -871.444501
siesta: eta*DQ  =         0.000000
siesta: Emadel  =         0.000000
siesta: Emeta   =         0.000000
siesta: Emolmec =         0.000000
siesta: Ekinion =         0.000000
siesta: Eharris =     -3135.037104
siesta: Etot    =     -3135.037104
siesta: FreeEng =     -3135.037104

siesta: Final energy (eV):
siesta:  Band Struct. =   -1023.607718
siesta:       Kinetic =    2095.933654
siesta:       Hartree =    3133.005660
siesta:       Eldau   =       0.000000
siesta:       Eso     =       0.000000
siesta:    Ext. field =       0.000000
siesta:   Exch.-corr. =    -871.444501
siesta:  Ion-electron =   -8247.934877
siesta:       Ion-ion =     753.100586
siesta:       Ekinion =       0.000000
siesta:         Total =   -3135.037104
siesta:         Fermi =      -5.053591

siesta: Stress tensor (static) (eV/Ang**3):
siesta:     1.091788    0.000000    0.000000
siesta:     0.000000    1.091792    0.000000
siesta:    -0.000000   -0.000000    0.000058

siesta: Cell volume =        335.190734 Ang**3

siesta: Pressure (static):
siesta:                Solid            Molecule  Units
siesta:          -0.00792754         -0.00792753  Ry/Bohr**3
siesta:          -0.72787939         -0.72787908  eV/Ang**3
siesta:       -1166.20395724      -1166.20346194  kBar
(Free)E+ p_basis*V_orbitals  =       -3132.026700
(Free)Eharris+ p_basis*V_orbitals  =       -3132.026700

siesta: Electric dipole (a.u.)  =   -0.000000   -0.000000    0.000000
siesta: Electric dipole (Debye) =   -0.000000   -0.000000    0.000000

timer: Elapsed wall time (sec) =     255.231
timer: CPU execution times (sec):

Routine            Calls   Time/call    Tot.time        %
siesta                 1     255.093     255.093   100.00
Setup                  1       0.328       0.328     0.13
bands                  1       0.000       0.000     0.00
KSV_init               1       0.000       0.000     0.00
IterGeom               1     254.758     254.758    99.87
state_init             1       0.064       0.064     0.02
hsparse                1       0.018       0.018     0.01
overlap                1       0.037       0.037     0.01
Setup_H0               1       1.817       1.817     0.71
naefs                  2       0.001       0.002     0.00
MolMec                 2       0.000       0.000     0.00
kinefsm                2       0.020       0.041     0.02
nlefsm                 2       0.157       0.315     0.12
DHSCF_Init             1       1.597       1.597     0.63
DHSCF1                 1       0.045       0.045     0.02
INITMESH               1       0.000       0.000     0.00
DHSCF2                 1       1.552       1.552     0.61
REMESH                 1       0.190       0.190     0.07
REORD                402       0.001       0.550     0.22
PHION                  1       1.076       1.076     0.42
COMM_BSC             311       0.001       0.431     0.17
POISON                76       0.032       2.428     0.95
fft                  152       0.011       1.628     0.64
IterSCF                9       0.972       8.752     3.43
setup_H               10       0.542       5.419     2.12
DHSCF                 27       2.698      72.840    28.55
DHSCF3                27       0.488      13.170     5.16
rhoofd                75       0.253      18.992     7.44
CellXC                27       0.065       1.765     0.69
cellXC                27       0.065       1.758     0.69
vmat                  47       0.177       8.306     3.26
compute_dm             9       0.367       3.301     1.29
diagon                 9       0.366       3.294     1.29
c-eigval             198       0.004       0.810     0.32
c-buildHS            198       0.002       0.314     0.12
cdiag              13620       0.000       3.511     1.38
cdiag1             13620       0.000       0.232     0.09
cdiag2             13620       0.000       0.730     0.29
cdiag3             13620       0.000       2.094     0.82
cdiag4             13620       0.000       0.306     0.12
c-eigvec             198       0.007       1.420     0.56
c-buildD             198       0.005       1.060     0.42
MIXER                  8       0.001       0.006     0.00
WriteM                 9       0.002       0.019     0.01
PostSCF                1       2.530       2.530     0.99
DHSCF4                 1       1.840       1.840     0.72
dfscf                  1       1.566       1.566     0.61
overfsm                1       0.008       0.008     0.00
Linres                 1     241.589     241.589    94.71
LRatom                 2     108.543     217.087    85.10
cellXC-LR              2       0.072       0.143     0.06
dvmat                  2       0.689       1.377     0.54
DHSCF-LR              16       3.614      57.831    22.67
dfscf2                 4       2.003       8.013     3.14
dynamat               12       2.309      27.706    10.86
dHinit                 2       0.002       0.004     0.00
dvnloc                 4       0.268       1.073     0.42
vmat-LR               36       0.177       6.362     2.49
delrho                12      14.613     175.357    68.74
delrhok               12      14.613     175.357    68.74
ddsmat                 2       0.033       0.066     0.03
state_analysis         1       0.000       0.000     0.00
siesta_move            1       0.000       0.000     0.00
Analysis               1       0.003       0.003     0.00
optical                1       0.000       0.000     0.00
  
>> End of run:  13-FEB-2017  12:35:23
