Siesta Version  : Linres_parallel652--trunk680
Architecture    : unknown
Compiler version: GNU Fortran (Ubuntu 4.8.4-2ubuntu1~14.04.3) 4.8.4
Compiler flags  : gfortran -O2 -fPIC -ftree-vectorize
PP flags        : -fbounds-check -g -fcheck=all -DFC_HAVE_FLUSH -DFC_HAVE_ABORT -fbacktrace -DL1 -DSIESTA__DIAG_2STAGE
Libraries       : libsiestaLAPACK.a libsiestaBLAS.a libsiestaLAPACK.a libsiestaBLAS.a -L/home/llikewise-open/ICN/sillera/Desktop/1/LinresLibxc/libxc-2.2.3/INSTAL/lib -l xcf90 -l xc
SERIAL version

* Running in serial mode
>> Start of run:  25-JUN-2018  12:42:14

                           ***********************       
                           *  WELCOME TO SIESTA  *       
                           ***********************       

reinit: Reading from standard input
reinit: Dumped input in INPUT_TMP.62171
************************** Dump of input data file ****************************
#
# FDF for a BN sheet with 110 supercell
#
SystemName          BN-2 atom
SystemLabel         BNlin
NumberOfSpecies     2
%block ChemicalSpeciesLabel
 1  5  B 10.811
 2  7  N 14.0067
%endblock ChemicalSpeciesLabel
PAO.BasisSize       SZ
XC.functional LDA
XC.authors    CA
MeshCutoff          200.0 Ry
MaxSCFIterations    500
DM.MixingWeight      0.1
DM.NumberPulay       5
DM.Tolerance         1.d-5
SolutionMethod       diagon
DM.UseSaveDM  	     .true.	
%include FC.fdf
AllocReportLevel   2
%block kgrid_Monkhorst_Pack
	6	0	0	0.0
	0	6	0	0.0
	0	0	1	0.0
%endblock kgrid_Monkhorst_Pack
************************** End of input data file *****************************

reinit: -----------------------------------------------------------------------
reinit: System Name: BN-2 atom
reinit: -----------------------------------------------------------------------
reinit: System Label: BNlin
reinit: -----------------------------------------------------------------------

initatom: Reading input for the pseudopotentials and atomic orbitals ----------
Species number:   1 Atomic number:    5 Label: B
Species number:   2 Atomic number:    7 Label: N

Ground state valence configuration:   2s02  2p01
Reading pseudopotential information in formatted form from B.psf

Valence configuration for pseudopotential generation:
2s( 2.00) rc: 1.99
2p( 1.00) rc: 1.99
3d( 0.00) rc: 1.99
4f( 0.00) rc: 1.99
Ground state valence configuration:   2s02  2p03
Reading pseudopotential information in formatted form from N.psf

Valence configuration for pseudopotential generation:
2s( 2.00) rc: 1.74
2p( 3.00) rc: 1.74
3d( 0.00) rc: 1.74
4f( 0.00) rc: 1.74
For B, standard SIESTA heuristics set lmxkb to 2
 (one more than the basis l, including polarization orbitals).
Use PS.lmax or PS.KBprojectors blocks to override.
For N, standard SIESTA heuristics set lmxkb to 2
 (one more than the basis l, including polarization orbitals).
Use PS.lmax or PS.KBprojectors blocks to override.

<basis_specs>
===============================================================================
B                    Z=   5    Mass=  10.810        Charge= 0.17977+309
Lmxo=1 Lmxkb= 2    BasisType=split      Semic=F
L=0  Nsemic=0  Cnfigmx=2
          n=1  nzeta=1  polorb=0
            splnorm:   0.15000    
               vcte:    0.0000    
               rinn:    0.0000    
               qcoe:    0.0000    
               qyuk:    0.0000    
               qwid:   0.10000E-01
                rcs:    0.0000    
            lambdas:    1.0000    
L=1  Nsemic=0  Cnfigmx=2
          n=1  nzeta=1  polorb=0
            splnorm:   0.15000    
               vcte:    0.0000    
               rinn:    0.0000    
               qcoe:    0.0000    
               qyuk:    0.0000    
               qwid:   0.10000E-01
                rcs:    0.0000    
            lambdas:    1.0000    
-------------------------------------------------------------------------------
L=0  Nkbl=1  erefs: 0.17977+309
L=1  Nkbl=1  erefs: 0.17977+309
L=2  Nkbl=1  erefs: 0.17977+309
===============================================================================
</basis_specs>

atom: Called for B                     (Z =   5)

read_vps: Pseudopotential generation method:
read_vps: ATM3.3.2  Troullier-Martins                       
Total valence charge:    3.00000

xc_check: Exchange-correlation functional:
xc_check: Ceperley-Alder
V l=0 = -2*Zval/r beyond r=  1.9696
V l=1 = -2*Zval/r beyond r=  1.9696
V l=2 = -2*Zval/r beyond r=  1.9696
All V_l potentials equal beyond r=  1.9696
This should be close to max(r_c) in ps generation
All pots = -2*Zval/r beyond r=  1.9696

VLOCAL1: 99.0% of the norm of Vloc inside     11.190 Ry
VLOCAL1: 99.9% of the norm of Vloc inside     25.502 Ry
atom: Maximum radius for 4*pi*r*r*local-pseudopot. charge    2.34633
atom: Maximum radius for r*vlocal+2*Zval:    2.01943
GHOST: No ghost state for L =  0
GHOST: No ghost state for L =  1
GHOST: No ghost state for L =  2

KBgen: Kleinman-Bylander projectors: 
   l= 0   rc=  2.204140   el= -0.689820   Ekb=  2.799048   kbcos=  0.322597
   l= 1   rc=  2.204140   el= -0.273582   Ekb= -2.485131   kbcos= -0.367909
   l= 2   rc=  2.375846   el=  0.002410   Ekb= -0.625064   kbcos= -0.020974

KBgen: Total number of  Kleinman-Bylander projectors:    9
atom: -------------------------------------------------------------------------

atom: SANKEY-TYPE ORBITALS:

SPLIT: Orbitals with angular momentum L= 0

SPLIT: Basis orbitals for state 2s

SPLIT: PAO cut-off radius determined from an
SPLIT: energy shift=  0.020000 Ry

   izeta = 1
                 lambda =    1.000000
                     rc =    4.906010
                 energy =   -0.672077
                kinetic =    0.586165
    potential(screened) =   -1.258241
       potential(ionic) =   -3.318920

SPLIT: Orbitals with angular momentum L= 1

SPLIT: Basis orbitals for state 2p

SPLIT: PAO cut-off radius determined from an
SPLIT: energy shift=  0.020000 Ry

   izeta = 1
                 lambda =    1.000000
                     rc =    5.700051
                 energy =   -0.254268
                kinetic =    1.576866
    potential(screened) =   -1.831134
       potential(ionic) =   -3.817568
atom: Total number of Sankey-type orbitals:  4

atm_pop: Valence configuration (for local Pseudopot. screening):
 2s( 2.00)                                                            
 2p( 1.00)                                                            
Vna: chval, zval:    3.00000   3.00000

Vna:  Cut-off radius for the neutral-atom potential:   5.700051

atom: _________________________________________________________________________

<basis_specs>
===============================================================================
N                    Z=   7    Mass=  14.010        Charge= 0.17977+309
Lmxo=1 Lmxkb= 2    BasisType=split      Semic=F
L=0  Nsemic=0  Cnfigmx=2
          n=1  nzeta=1  polorb=0
            splnorm:   0.15000    
               vcte:    0.0000    
               rinn:    0.0000    
               qcoe:    0.0000    
               qyuk:    0.0000    
               qwid:   0.10000E-01
                rcs:    0.0000    
            lambdas:    1.0000    
L=1  Nsemic=0  Cnfigmx=2
          n=1  nzeta=1  polorb=0
            splnorm:   0.15000    
               vcte:    0.0000    
               rinn:    0.0000    
               qcoe:    0.0000    
               qyuk:    0.0000    
               qwid:   0.10000E-01
                rcs:    0.0000    
            lambdas:    1.0000    
-------------------------------------------------------------------------------
L=0  Nkbl=1  erefs: 0.17977+309
L=1  Nkbl=1  erefs: 0.17977+309
L=2  Nkbl=1  erefs: 0.17977+309
===============================================================================
</basis_specs>

atom: Called for N                     (Z =   7)

read_vps: Pseudopotential generation method:
read_vps: ATM3.3.2  Troullier-Martins                       
Total valence charge:    5.00000

xc_check: Exchange-correlation functional:
xc_check: Ceperley-Alder
V l=0 = -2*Zval/r beyond r=  1.7184
V l=1 = -2*Zval/r beyond r=  1.7184
V l=2 = -2*Zval/r beyond r=  1.7184
All V_l potentials equal beyond r=  1.7184
This should be close to max(r_c) in ps generation
All pots = -2*Zval/r beyond r=  1.7184

VLOCAL1: 99.0% of the norm of Vloc inside     14.700 Ry
VLOCAL1: 99.9% of the norm of Vloc inside     33.502 Ry
atom: Maximum radius for 4*pi*r*r*local-pseudopot. charge    2.07284
atom: Maximum radius for r*vlocal+2*Zval:    1.80650
GHOST: No ghost state for L =  0
GHOST: No ghost state for L =  1
GHOST: No ghost state for L =  2

KBgen: Kleinman-Bylander projectors: 
   l= 0   rc=  1.923037   el= -1.352239   Ekb=  3.172975   kbcos=  0.267359
   l= 1   rc=  1.875548   el= -0.532623   Ekb= -5.099421   kbcos= -0.501360
   l= 2   rc=  1.996534   el=  0.002346   Ekb= -1.142886   kbcos= -0.011476

KBgen: Total number of  Kleinman-Bylander projectors:    9
atom: -------------------------------------------------------------------------

atom: SANKEY-TYPE ORBITALS:

SPLIT: Orbitals with angular momentum L= 0

SPLIT: Basis orbitals for state 2s

SPLIT: PAO cut-off radius determined from an
SPLIT: energy shift=  0.020000 Ry

   izeta = 1
                 lambda =    1.000000
                     rc =    3.683980
                 energy =   -1.333777
                kinetic =    1.196945
    potential(screened) =   -2.530722
       potential(ionic) =   -8.128785

SPLIT: Orbitals with angular momentum L= 1

SPLIT: Basis orbitals for state 2p

SPLIT: PAO cut-off radius determined from an
SPLIT: energy shift=  0.020000 Ry

   izeta = 1
                 lambda =    1.000000
                     rc =    4.280232
                 energy =   -0.512467
                kinetic =    3.438273
    potential(screened) =   -3.950740
       potential(ionic) =   -9.360253
atom: Total number of Sankey-type orbitals:  4

atm_pop: Valence configuration (for local Pseudopot. screening):
 2s( 2.00)                                                            
 2p( 3.00)                                                            
Vna: chval, zval:    5.00000   5.00000

Vna:  Cut-off radius for the neutral-atom potential:   4.280232

atom: _________________________________________________________________________

prinput: Basis input ----------------------------------------------------------

PAO.BasisType split     

%block ChemicalSpeciesLabel
    1    5 B                       # Species index, atomic number, species label
    2    7 N                       # Species index, atomic number, species label
%endblock ChemicalSpeciesLabel

%block PAO.Basis                 # Define Basis set
B                     2                    # Species label, number of l-shells
 n=2   0   1                         # n, l, Nzeta 
   4.906   
   1.000   
 n=2   1   1                         # n, l, Nzeta 
   5.700   
   1.000   
N                     2                    # Species label, number of l-shells
 n=2   0   1                         # n, l, Nzeta 
   3.684   
   1.000   
 n=2   1   1                         # n, l, Nzeta 
   4.280   
   1.000   
%endblock PAO.Basis

prinput: ----------------------------------------------------------------------

coor:   Atomic-coordinates input format  =     Cartesian coordinates
coor:                                            (in Bohr units)

siesta: Atomic coordinates (Bohr) and species
siesta:     -7.19265  -4.15268   0.00000  1        1
siesta:     -4.79510  -2.76845   0.00000  2        2
siesta:     -4.79510  -0.00000   0.00000  1        3
siesta:     -2.39755   1.38423   0.00000  2        4
siesta:     -2.39755   4.15268   0.00000  1        5
siesta:      0.00000   5.53691   0.00000  2        6
siesta:     -2.39755  -4.15268   0.00000  1        7
siesta:     -0.00000  -2.76845   0.00000  2        8
siesta:     -0.00000  -0.00000   0.00000  1        9
siesta:      2.39755   1.38423   0.00000  2       10
siesta:      2.39755   4.15268   0.00000  1       11
siesta:      4.79510   5.53691   0.00000  2       12
siesta:      2.39755  -4.15268   0.00000  1       13
siesta:      4.79510  -2.76845   0.00000  2       14
siesta:      4.79510  -0.00000   0.00000  1       15
siesta:      7.19265   1.38423   0.00000  2       16
siesta:      7.19265   4.15268   0.00000  1       17
siesta:      9.59020   5.53691   0.00000  2       18

siesta: System type = slab      

initatomlists: Number of atoms, orbitals, and projectors:     18    72   162

siesta: ******************** Simulation parameters ****************************
siesta:
siesta: The following are some of the parameters of the simulation.
siesta: A complete list of the parameters used, including default values,
siesta: can be found in file out.fdf
siesta:
redata: Spin configuration                          = none
redata: Number of spin components                   = 1
redata: Time-Reversal Symmetry                      = T
redata: Spin-spiral                                 = F
redata: Long output                                 =   F
redata: Number of Atomic Species                    =        2
redata: Charge density info will appear in .RHO file
redata: Write Mulliken Pop.                         = NO
redata: Mesh Cutoff                                 =   200.0000 Ry
redata: Net charge of the system                    =     0.0000 |e|
redata: Min. number of SCF Iter                     =        0
redata: Max. number of SCF Iter                     =      500
redata: SCF convergence failure will abort job
redata: SCF mix quantity                            = Hamiltonian
redata: Mix DM or H after convergence               =   F
redata: Recompute H after scf cycle                 =   F
redata: Mix DM in first SCF step                    =   T
redata: Write Pulay info on disk                    =   F
redata: New DM Mixing Weight                        =     0.1000
redata: New DM Occupancy tolerance                  = 0.000000000001
redata: No kicks to SCF
redata: DM Mixing Weight for Kicks                  =     0.5000
redata: Require Harris convergence for SCF          =   F
redata: Harris energy tolerance for SCF             =     0.000100 eV
redata: Require DM convergence for SCF              =   T
redata: DM tolerance for SCF                        =     0.000010
redata: Require EDM convergence for SCF             =   F
redata: EDM tolerance for SCF                       =     0.001000 eV
redata: Require H convergence for SCF               =   T
redata: Hamiltonian tolerance for SCF               =     0.001000 eV
redata: Require (free) Energy convergence for SCF   =   F
redata: (free) Energy tolerance for SCF             =     0.000100 eV
redata: Using Saved Data (generic)                  =   F
redata: Use continuation files for DM               =   T
redata: Neglect nonoverlap interactions             =   F
redata: Method of Calculation                       = Diagonalization
redata: Electronic Temperature                      =   299.9869 K
redata: Fix the spin of the system                  =   F
redata: Max. number of TDED Iter                    =        1
redata: Number of TDED substeps                     =        3
redata: Dynamics option                             = Single-point calculation
mix.SCF: Pulay mixing                            = Pulay
mix.SCF:    Variant                              = stable
mix.SCF:    History steps                        = 5
mix.SCF:    Linear mixing weight                 =     0.100000
mix.SCF:    Mixing weight                        =     0.100000
mix.SCF:    SVD condition                        = 0.1000E-07
redata: ***********************************************************************

%block SCF.Mixers
  Pulay
%endblock SCF.Mixers

%block SCF.Mixer.Pulay
  # Mixing method
  method pulay
  variant stable

  # Mixing options
  weight 0.1000
  weight.linear 0.1000
  history 5
%endblock SCF.Mixer.Pulay

DM_history_depth set to one: no extrapolation allowed by default for geometry relaxation
Size of DM history Fstack: 1
Total number of electrons:    72.000000
Total ionic charge:    72.000000
k-point displ. along   1 input, could be:     0.00    0.50
k-point displ. along   2 input, could be:     0.00    0.50
 Kpoints in:           24 . Kpoints trimmed:           22

siesta: k-grid: Number of k-points =    22
siesta: k-grid: Cutoff (effective) =     3.340 Ang
siesta: k-grid: Supercell and displacements
siesta: k-grid:    6   0   0      0.000
siesta: k-grid:    0   6   0      0.000
siesta: k-grid:    0   0   1      0.000

diag: Algorithm                                     = D&C
diag: Used triangular part                          = Lower
diag: Absolute tolerance                            =  0.100E-15
diag: Orthogonalization factor                      =  0.100E-05
diag: Memory factor                                 =  1.0000

superc: Internal auxiliary supercell:     3 x     3 x     1  =       9
superc: Number of atoms, orbitals, and projectors:    162    648   1458


ts: **************************************************************
ts: Save H and S matrices                           =    F
ts: Save DM and EDM matrices                        =    F
ts: Fix Hartree potential                           =    F
ts: Only save the overlap matrix S                  =    F
ts: **************************************************************

************************ Begin: TS CHECKS AND WARNINGS ************************
************************ End: TS CHECKS AND WARNINGS **************************


                     ====================================
                        Single-point calculation
                     ====================================

superc: Internal auxiliary supercell:     3 x     3 x     1  =       9
superc: Number of atoms, orbitals, and projectors:    162    648   1458

outcell: Unit cell vectors (Ang):
        7.612371   -0.000000    0.000000
        3.806187    6.592509   -0.000000
        0.000000   -0.000000    6.679152

outcell: Cell vector modules (Ang)   :    7.612371    7.612374    6.679152
outcell: Cell angles (23,13,12) (deg):     90.0000     90.0000     60.0000
outcell: Cell volume (Ang**3)        :    335.1907
<dSpData1D:S at geom step 0
  <sparsity:sparsity for geom step 0
    nrows_g=72 nrows=72 sparsity=2.7743 nnzs=14382, refcount: 7>
  <dData1D:(new from dSpData1D) n=14382, refcount: 1>
refcount: 1>
new_DM -- step:     1
Initializing Density Matrix...

Attempting to read DM from file... Failed...
DM filled with atomic data:
<dSpData2D:DM initialized from atoms
  <sparsity:sparsity for geom step 0
    nrows_g=72 nrows=72 sparsity=2.7743 nnzs=14382, refcount: 8>
  <dData2D:DM n=14382 m=1, refcount: 1>
refcount: 1>

No. of atoms with KB's overlaping orbs in proc 0. Max # of overlaps:      56      70
New grid distribution:   1
           1       1:   30    1:   30    1:   30

InitMesh: MESH =    60 x    60 x    60 =      216000
InitMesh: (bp) =    30 x    30 x    30 =       27000
InitMesh: Mesh cutoff (required, used) =   200.000   223.029 Ry
ExtMesh (bp) on 0 =    86 x    86 x    86 =      636056
PhiOnMesh: Number of (b)points on node 0 =                27000
PhiOnMesh: nlist on node 0 =               477414

stepf: Fermi-Dirac step function

siesta: Program's energy decomposition (eV):
siesta: Ebs     =      -956.347358
siesta: Eions   =      4185.345278
siesta: Ena     =       432.038396
siesta: Ekin    =      2159.191192
siesta: Enl     =      -652.953332
siesta: Eso     =         0.000000
siesta: Eldau   =         0.000000
siesta: DEna    =        -8.235473
siesta: DUscf   =         7.052606
siesta: DUext   =         0.000000
siesta: Enegf   =         0.000000
siesta: Exc     =      -884.547695
siesta: eta*DQ  =         0.000000
siesta: Emadel  =         0.000000
siesta: Emeta   =         0.000000
siesta: Emolmec =         0.000000
siesta: Ekinion =         0.000000
siesta: Eharris =     -3125.551020
siesta: Etot    =     -3132.799583
siesta: FreeEng =     -3132.799583

        iscf     Eharris(eV)        E_KS(eV)     FreeEng(eV)     dDmax    Ef(eV) dHmax(eV)
   scf:    1    -3125.551020    -3132.799583    -3132.799583  1.708408 -5.241495  1.977447
timer: Routine,Calls,Time,% = IterSCF        1       1.674  45.68
   scf:    2    -3134.613752    -3133.744987    -3133.744987  0.024805 -5.141389  1.472649
   scf:    3    -3135.669152    -3135.025317    -3135.025317  0.073118 -4.874842  0.144266
   scf:    4    -3134.968912    -3134.999466    -3134.999466  0.005622 -5.086385  0.256758
   scf:    5    -3135.051455    -3135.037097    -3135.037097  0.014412 -5.053526  0.004369
   scf:    6    -3135.037025    -3135.037078    -3135.037078  0.000646 -5.055510  0.007425
   scf:    7    -3135.037114    -3135.037104    -3135.037104  0.000381 -5.053568  0.000146
   scf:    8    -3135.037104    -3135.037104    -3135.037104  0.000011 -5.053595  0.000054
   scf:    9    -3135.037104    -3135.037104    -3135.037104  0.000003 -5.053591  0.000001

SCF Convergence by DM+H criterion
max |DM_out - DM_in|         :     0.0000028841
max |H_out - H_in|      (eV) :     0.0000008992
SCF cycle converged after 9 iterations

Using DM_out to compute the final energy and forces
No. of atoms with KB's overlaping orbs in proc 0. Max # of overlaps:      56      70

                     ====================================
                               Linres calculation
                     ====================================
Linres: Initial perturbed atom      9
  Linres: Final perturbed atom     10
        Linres: Tolerance (DM)   0.00100

                     ====================================
                               Linres atom=      9
                     ====================================

WARNING: alloc-realloc-dealloc name mismatch
         Name: unknown_routine unknown_name
         Size:            -82836. Bytes
         Subsequent mismatches will not be reported
        iscf     dDmax
 lr-scf:   1  0.212673
 lr-scf:   2  0.098377
 lr-scf:   3  0.054695
 lr-scf:   4  0.017831
 lr-scf:   5  0.004468
 lr-scf:   6  0.000436

writedynmat: Saving into a file calculated dynamical matrix

                     ====================================
                               Linres atom=     10
                     ====================================
        iscf     dDmax
 lr-scf:   1  0.389693
 lr-scf:   2  0.220668
 lr-scf:   3  0.138183
 lr-scf:   4  0.036156
 lr-scf:   5  0.009045
 lr-scf:   6  0.000905

writedynmat: Saving into a file calculated dynamical matrix
 ----- COMPLETE DYNAMICAL MATRIX -----
 xyz;Beta;xyz;Alpha;dynmat
           1 ;           1 ;           1 ;           9 ;   3.0771738285901764E-002
           2 ;           1 ;           1 ;           9 ;   2.3142378529520343E-003
           3 ;           1 ;           1 ;           9 ;  -8.5862419284409751E-015
           1 ;           2 ;           1 ;           9 ;  -2.2756668630225296E-002
           2 ;           2 ;           1 ;           9 ;  -3.4706185661422112E-002
           3 ;           2 ;           1 ;           9 ;  -6.0176635713835874E-013
           1 ;           3 ;           1 ;           9 ;  0.11366347392854369     
           2 ;           3 ;           1 ;           9 ;   1.7461738939224809E-003
           3 ;           3 ;           1 ;           9 ;  -7.2744915716196522E-014
           1 ;           4 ;           1 ;           9 ;  0.42754994659024725     
           2 ;           4 ;           1 ;           9 ; -0.16586935344271575     
           3 ;           4 ;           1 ;           9 ;  -3.4429806838064095E-012
           1 ;           5 ;           1 ;           9 ;  -1.0827791503490825E-002
           2 ;           5 ;           1 ;           9 ;  -6.8746364875029539E-002
           3 ;           5 ;           1 ;           9 ;   1.2147114573549594E-013
           1 ;           6 ;           1 ;           9 ;   3.4232946224620350E-002
           2 ;           6 ;           1 ;           9 ;  -2.0502417044740723E-003
           3 ;           6 ;           1 ;           9 ;   4.2404748421695181E-015
           1 ;           7 ;           1 ;           9 ;  -9.9498814042637950E-003
           2 ;           7 ;           1 ;           9 ;   7.4087421611227888E-002
           3 ;           7 ;           1 ;           9 ;  -1.7181074371887296E-013
           1 ;           8 ;           1 ;           9 ;  0.14488085605165107     
           2 ;           8 ;           1 ;           9 ;  -1.8346241158719858E-003
           3 ;           8 ;           1 ;           9 ;   1.8504711585307340E-015
           1 ;           9 ;           1 ;           9 ;  -1.1458308528023895     
           2 ;           9 ;           1 ;           9 ;   1.7669328714669847E-003
           3 ;           9 ;           1 ;           9 ;  -2.6165447016495520E-015
           1 ;          10 ;           1 ;           9 ;  0.42791954629067047     
           2 ;          10 ;           1 ;           9 ;  0.16158055549784628     
           3 ;          10 ;           1 ;           9 ;   3.4352910939298666E-012
           1 ;          11 ;           1 ;           9 ;  -9.7132476462369177E-003
           2 ;          11 ;           1 ;           9 ;   7.3240359906087696E-002
           3 ;          11 ;           1 ;           9 ;  -1.2247131037551739E-013
           1 ;          12 ;           1 ;           9 ;  -2.0980025943214596E-002
           2 ;          12 ;           1 ;           9 ;  -1.9661873458759412E-002
           3 ;          12 ;           1 ;           9 ;   2.2538969286663344E-013
           1 ;          13 ;           1 ;           9 ;  -9.6366194515612076E-003
           2 ;          13 ;           1 ;           9 ;  -7.0380695370396970E-002
           3 ;          13 ;           1 ;           9 ;   1.6802625451556028E-013
           1 ;          14 ;           1 ;           9 ;  -2.2492819526762665E-002
           2 ;          14 ;           1 ;           9 ;   3.0693619376112910E-002
           3 ;          14 ;           1 ;           9 ;   6.0979763751694744E-013
           1 ;          15 ;           1 ;           9 ;  0.11445862831548069     
           2 ;          15 ;           1 ;           9 ;   2.5057363581459484E-003
           3 ;          15 ;           1 ;           9 ;   5.9230400071052886E-014
           1 ;          16 ;           1 ;           9 ;  -5.1367481041566382E-002
           2 ;          16 ;           1 ;           9 ;  -2.0309274926672721E-003
           3 ;          16 ;           1 ;           9 ;   5.6117098617039954E-015
           1 ;          17 ;           1 ;           9 ;   3.1745684172483656E-002
           2 ;          17 ;           1 ;           9 ;   2.0013380669594324E-003
           3 ;          17 ;           1 ;           9 ;  -4.9773693295104392E-015
           1 ;          18 ;           1 ;           9 ;  -2.1575316776069501E-002
           2 ;          18 ;           1 ;           9 ;   1.5343836256302000E-002
           3 ;          18 ;           1 ;           9 ;  -2.2456584707861552E-013
           1 ;           1 ;           2 ;           9 ;   2.0943195205058284E-003
           2 ;           1 ;           2 ;           9 ;   3.1213165975368884E-002
           3 ;           1 ;           2 ;           9 ;  -4.7970167453377167E-015
           1 ;           2 ;           2 ;           9 ;  -3.5352263977966529E-002
           2 ;           2 ;           2 ;           9 ;   1.5382998670717600E-002
           3 ;           2 ;           2 ;           9 ;  -3.4531228352565361E-013
           1 ;           3 ;           2 ;           9 ;   2.7821000774413789E-003
           2 ;           3 ;           2 ;           9 ;  -5.1488879429597290E-002
           3 ;           3 ;           2 ;           9 ;  -1.8096190988934080E-013
           1 ;           4 ;           2 ;           9 ; -0.16634731347623058     
           2 ;           4 ;           2 ;           9 ;  0.23928909665854373     
           3 ;           4 ;           2 ;           9 ;   2.0199575969966732E-012
           1 ;           5 ;           2 ;           9 ;  -7.0571900420341213E-002
           2 ;           5 ;           2 ;           9 ;   7.2363317621529200E-002
           3 ;           5 ;           2 ;           9 ;   1.2447305561720655E-013
           1 ;           6 ;           2 ;           9 ;  -1.9511562548967826E-003
           2 ;           6 ;           2 ;           9 ;  -4.0840176824230329E-002
           3 ;           6 ;           2 ;           9 ;   6.9868508729928967E-013
           1 ;           7 ;           2 ;           9 ;   7.3704208202219124E-002
           2 ;           7 ;           2 ;           9 ;   7.1887305104839164E-002
           3 ;           7 ;           2 ;           9 ;   3.9196309736728813E-014
           1 ;           8 ;           2 ;           9 ;  -2.4232263262882010E-003
           2 ;           8 ;           2 ;           9 ;  0.52259240674548724     
           3 ;           8 ;           2 ;           9 ;  -3.9597855139763545E-012
           1 ;           9 ;           2 ;           9 ;   2.6887906186171297E-003
           2 ;           9 ;           2 ;           9 ;  -1.1465328979906975     
           3 ;           9 ;           2 ;           9 ;   1.4717822357100305E-014
           1 ;          10 ;           2 ;           9 ;  0.16098529344888649     
           2 ;          10 ;           2 ;           9 ;  0.23969443937916488     
           3 ;          10 ;           2 ;           9 ;   2.0057243745633191E-012
           1 ;          11 ;           2 ;           9 ;   7.5094367926175867E-002
           2 ;          11 ;           2 ;           9 ;   7.2353362270273336E-002
           3 ;          11 ;           2 ;           9 ;   1.1418520831038554E-013
           1 ;          12 ;           2 ;           9 ;  -2.0170309897338569E-002
           2 ;          12 ;           2 ;           9 ;  -4.0836734299260324E-002
           3 ;          12 ;           2 ;           9 ;  -1.3338034911518673E-013
           1 ;          13 ;           2 ;           9 ;  -6.8434869638150930E-002
           2 ;          13 ;           2 ;           9 ;   7.2295608561882940E-002
           3 ;          13 ;           2 ;           9 ;   3.6907944226861864E-014
           1 ;          14 ;           2 ;           9 ;   3.0475371434204781E-002
           2 ;          14 ;           2 ;           9 ;   1.5319973388512702E-002
           3 ;          14 ;           2 ;           9 ;  -3.4754957957091184E-013
           1 ;          15 ;           2 ;           9 ;   2.1880036322379386E-003
           2 ;          15 ;           2 ;           9 ;  -5.1999845469009889E-002
           3 ;          15 ;           2 ;           9 ;  -1.7911795833513328E-013
           1 ;          16 ;           2 ;           9 ;  -2.3374597357602236E-003
           2 ;          16 ;           2 ;           9 ;  -1.0633203887097351E-002
           3 ;          16 ;           2 ;           9 ;   2.6613604810172395E-013
           1 ;          17 ;           2 ;           9 ;   2.5120798915376813E-003
           2 ;          17 ;           2 ;           9 ;   3.1078080425465761E-002
           3 ;          17 ;           2 ;           9 ;  -3.8550322305407313E-015
           1 ;          18 ;           2 ;           9 ;   1.5063926475516642E-002
           2 ;          18 ;           2 ;           9 ;  -4.1045852397953921E-002
           3 ;          18 ;           2 ;           9 ;  -1.3061431153682982E-013
           1 ;           1 ;           3 ;           9 ;   4.4002759539005209E-006
           2 ;           1 ;           3 ;           9 ;  -1.3325621305138654E-007
           3 ;           1 ;           3 ;           9 ;  -2.7938047022608759E-004
           1 ;           2 ;           3 ;           9 ;  -3.9978368535723917E-006
           2 ;           2 ;           3 ;           9 ;   2.5036532825392775E-007
           3 ;           2 ;           3 ;           9 ;   8.0107287007436679E-003
           1 ;           3 ;           3 ;           9 ;   2.2266563078714074E-006
           2 ;           3 ;           3 ;           9 ;   1.4004490692597988E-006
           3 ;           3 ;           3 ;           9 ;  -5.2817016030686460E-003
           1 ;           4 ;           3 ;           9 ;   2.0872559720668422E-006
           2 ;           4 ;           3 ;           9 ;  -3.8461210934162283E-006
           3 ;           4 ;           3 ;           9 ;  0.10874155227112119     
           1 ;           5 ;           3 ;           9 ;   2.3318616531253945E-006
           2 ;           5 ;           3 ;           9 ;   1.2791216338870069E-006
           3 ;           5 ;           3 ;           9 ;  -5.2816363649495048E-003
           1 ;           6 ;           3 ;           9 ;  -4.4141206201644096E-006
           2 ;           6 ;           3 ;           9 ;  -4.7727967986756317E-007
           3 ;           6 ;           3 ;           9 ;   8.0107499610620123E-003
           1 ;           7 ;           3 ;           9 ;   4.6002140388676666E-006
           2 ;           7 ;           3 ;           9 ;  -2.4051907944653465E-006
           3 ;           7 ;           3 ;           9 ;  -5.2816522009713094E-003
           1 ;           8 ;           3 ;           9 ;  -4.4162628587473780E-006
           2 ;           8 ;           3 ;           9 ;   7.5707915459314607E-006
           3 ;           8 ;           3 ;           9 ;  0.10874145319717614     
           1 ;           9 ;           3 ;           9 ;   4.4076383603193485E-006
           2 ;           9 ;           3 ;           9 ;  -1.3977869491599056E-007
           3 ;           9 ;           3 ;           9 ; -0.28445106181525714     
           1 ;          10 ;           3 ;           9 ;  -1.0970644060866595E-005
           2 ;          10 ;           3 ;           9 ;  -3.7751237286193820E-006
           3 ;          10 ;           3 ;           9 ;  0.10874186210504269     
           1 ;          11 ;           3 ;           9 ;   6.5577905148146604E-006
           2 ;          11 ;           3 ;           9 ;   1.2792836274838591E-006
           3 ;          11 ;           3 ;           9 ;  -5.2816529045741000E-003
           1 ;          12 ;           3 ;           9 ;  -6.9059339738310822E-006
           2 ;          12 ;           3 ;           9 ;   1.3610040002612750E-006
           3 ;          12 ;           3 ;           9 ;  -1.1190019676011435E-002
           1 ;          13 ;           3 ;           9 ;   4.2962609598442490E-006
           2 ;          13 ;           3 ;           9 ;  -2.4008047462174113E-006
           3 ;          13 ;           3 ;           9 ;  -5.2816361915502021E-003
           1 ;          14 ;           3 ;           9 ;  -4.8827122420478015E-006
           2 ;          14 ;           3 ;           9 ;   1.8264208247147731E-007
           3 ;          14 ;           3 ;           9 ;   8.0107551555753404E-003
           1 ;          15 ;           3 ;           9 ;   6.6642109203059867E-006
           2 ;          15 ;           3 ;           9 ;   1.3943565206345695E-006
           3 ;          15 ;           3 ;           9 ;  -5.2817020443631730E-003
           1 ;          16 ;           3 ;           9 ;  -4.4144335265362594E-006
           2 ;          16 ;           3 ;           9 ;  -2.8209394657382251E-006
           3 ;          16 ;           3 ;           9 ;  -1.1190023277196339E-002
           1 ;          17 ;           3 ;           9 ;   4.4049202969045591E-006
           2 ;          17 ;           3 ;           9 ;  -1.4427857110717849E-007
           3 ;          17 ;           3 ;           9 ;  -2.9351435464935284E-004
           1 ;          18 ;           3 ;           9 ;  -1.9751543321230939E-006
           2 ;          18 ;           3 ;           9 ;   1.4247278246448860E-006
           3 ;          18 ;           3 ;           9 ;  -1.1190043829600243E-002
           1 ;           1 ;           1 ;          10 ;  -1.6285471671868720E-002
           2 ;           1 ;           1 ;          10 ;   1.9624407691337036E-002
           3 ;           1 ;           1 ;          10 ;  -1.1771001169156940E-013
           1 ;           2 ;           1 ;          10 ;   1.7574661659958111E-002
           2 ;           2 ;           1 ;          10 ;  -1.8734695642865845E-003
           3 ;           2 ;           1 ;          10 ;   4.1928201874367615E-015
           1 ;           3 ;           1 ;          10 ;  -4.6997091542663558E-002
           2 ;           3 ;           1 ;          10 ;   1.9244850590595713E-003
           3 ;           3 ;           1 ;          10 ;  -5.0157014583164458E-015
           1 ;           4 ;           1 ;          10 ;   8.9997749090238929E-002
           2 ;           4 ;           1 ;          10 ;   8.9877099577075435E-003
           3 ;           4 ;           1 ;          10 ;   1.0090559490530699E-012
           1 ;           5 ;           1 ;          10 ;  -1.7614329409870601E-002
           2 ;           5 ;           1 ;          10 ;   3.3267767199202811E-002
           3 ;           5 ;           1 ;          10 ;  -1.0202569779658115E-013
           1 ;           6 ;           1 ;          10 ;   2.6337479704801299E-003
           2 ;           6 ;           1 ;          10 ;  -6.3208585575824608E-002
           3 ;           6 ;           1 ;          10 ;   1.1017807643841767E-012
           1 ;           7 ;           1 ;          10 ;  -1.5895859424911792E-002
           2 ;           7 ;           1 ;          10 ;  -1.5912039872216979E-002
           3 ;           7 ;           1 ;          10 ;   1.0964801031789927E-013
           1 ;           8 ;           1 ;          10 ;   2.8609864600722700E-003
           2 ;           8 ;           1 ;          10 ;   3.8057442126593691E-002
           3 ;           8 ;           1 ;          10 ;  -1.1212722970620155E-013
           1 ;           9 ;           1 ;          10 ;  0.43230116549287051     
           2 ;           9 ;           1 ;          10 ;  0.16584073876817598     
           3 ;           9 ;           1 ;          10 ;  -2.5349354856139066E-012
           1 ;          10 ;           1 ;          10 ;  -1.1627276733884628     
           2 ;          10 ;           1 ;          10 ;  -1.5364276509240381E-003
           3 ;          10 ;           1 ;          10 ;   5.1905041866011836E-015
           1 ;          11 ;           1 ;          10 ;  0.14803623193703280     
           2 ;          11 ;           1 ;          10 ;   1.8790164363738082E-003
           3 ;          11 ;           1 ;          10 ;  -3.0225985624958124E-015
           1 ;          12 ;           1 ;          10 ;   2.3100124403076976E-003
           2 ;          12 ;           1 ;          10 ;   5.9703201645097015E-002
           3 ;          12 ;           1 ;          10 ;  -1.1053134731717207E-012
           1 ;          13 ;           1 ;          10 ;   3.6897331616280699E-002
           2 ;          13 ;           1 ;          10 ;   2.1458036873617365E-003
           3 ;          13 ;           1 ;          10 ;  -3.5217384533783266E-015
           1 ;          14 ;           1 ;          10 ;   3.1015593650570153E-003
           2 ;          14 ;           1 ;          10 ;  -4.1778976215672413E-002
           3 ;          14 ;           1 ;          10 ;   1.1437690215697360E-013
           1 ;          15 ;           1 ;          10 ;  0.43226497073382686     
           2 ;          15 ;           1 ;          10 ; -0.16234933493084405     
           3 ;          15 ;           1 ;          10 ;   2.5177961691919899E-012
           1 ;          16 ;           1 ;          10 ;   9.0670017027265001E-002
           2 ;          16 ;           1 ;          10 ;  -1.3122658651712261E-002
           3 ;          16 ;           1 ;          10 ;  -1.0129182673229273E-012
           1 ;          17 ;           1 ;          10 ;  -1.7472612835155776E-002
           2 ;          17 ;           1 ;          10 ;  -2.9479243402116818E-002
           3 ;          17 ;           1 ;          10 ;   9.5616823117182370E-014
           1 ;          18 ;           1 ;          10 ;   1.7971725104999638E-002
           2 ;          18 ;           1 ;          10 ;  -2.1697538739765556E-003
           3 ;          18 ;           1 ;          10 ;   3.6128752163649476E-015
           1 ;           1 ;           2 ;          10 ;   1.9206666313976217E-002
           2 ;           1 ;           2 ;          10 ;  -3.6210585513451417E-002
           3 ;           1 ;           2 ;          10 ;  -6.4299735500969707E-014
           1 ;           2 ;           2 ;          10 ;  -2.0685648297966925E-003
           2 ;           2 ;           2 ;          10 ;   1.7286542220641587E-002
           3 ;           2 ;           2 ;          10 ;   4.2790837815132934E-015
           1 ;           3 ;           2 ;          10 ;   1.4514741428105153E-003
           2 ;           3 ;           2 ;          10 ;  -5.6890864435335774E-003
           3 ;           3 ;           2 ;          10 ;   1.1838109200467372E-013
           1 ;           4 ;           2 ;          10 ;  -1.2701952327074948E-002
           2 ;           4 ;           2 ;          10 ;  -2.7229640843494440E-002
           3 ;           4 ;           2 ;          10 ;  -6.9110591503565707E-013
           1 ;           5 ;           2 ;          10 ;   3.2973524658827962E-002
           2 ;           5 ;           2 ;          10 ;   1.8720857287674288E-002
           3 ;           5 ;           2 ;          10 ;   5.2967425162583453E-014
           1 ;           6 ;           2 ;          10 ;  -4.0778239657659705E-002
           2 ;           6 ;           2 ;          10 ;   6.1734802633884527E-002
           3 ;           6 ;           2 ;          10 ;  -5.3162624627229813E-013
           1 ;           7 ;           2 ;          10 ;  -1.5767502383992372E-002
           2 ;           7 ;           2 ;          10 ;  -3.6306234910883500E-002
           3 ;           7 ;           2 ;          10 ;  -6.1744022054969234E-014
           1 ;           8 ;           2 ;          10 ;   6.0135523877672133E-002
           2 ;           8 ;           2 ;          10 ;   6.0711000244152248E-002
           3 ;           8 ;           2 ;          10 ;   1.2286659649489946E-012
           1 ;           9 ;           2 ;          10 ;  0.16612390157780760     
           2 ;           9 ;           2 ;          10 ;  0.24244615223261376     
           3 ;           9 ;           2 ;          10 ;  -1.4565243923347605E-012
           1 ;          10 ;           2 ;          10 ;  -1.9533733721874228E-003
           2 ;          10 ;           2 ;          10 ;  -1.1626100454733459     
           3 ;          10 ;           2 ;          10 ;  -7.2949651987838813E-015
           1 ;          11 ;           2 ;          10 ;   1.9525911964723768E-003
           2 ;          11 ;           2 ;          10 ;  0.52684634101234329     
           3 ;          11 ;           2 ;          10 ;   2.9750358227302215E-012
           1 ;          12 ;           2 ;          10 ;   3.7644411482771825E-002
           2 ;          12 ;           2 ;          10 ;   6.1762545438414605E-002
           3 ;          12 ;           2 ;          10 ;  -5.2989885031851476E-013
           1 ;          13 ;           2 ;          10 ;   2.0280814029002983E-003
           2 ;          13 ;           2 ;          10 ;  -3.5219245913074064E-002
           3 ;          13 ;           2 ;          10 ;  -1.1963586765506199E-013
           1 ;          14 ;           2 ;          10 ;  -6.3458807985225768E-002
           2 ;          14 ;           2 ;          10 ;   6.0194759589804372E-002
           3 ;          14 ;           2 ;          10 ;   1.2365960373323509E-012
           1 ;          15 ;           2 ;          10 ; -0.16209391031224060     
           2 ;          15 ;           2 ;          10 ;  0.24277706383494430     
           3 ;          15 ;           2 ;          10 ;  -1.4621184740596473E-012
           1 ;          16 ;           2 ;          10 ;   9.1592392324336396E-003
           2 ;          16 ;           2 ;          10 ;  -2.6796797367376574E-002
           3 ;          16 ;           2 ;          10 ;  -6.8851992961928424E-013
           1 ;          17 ;           2 ;          10 ;  -2.9506456153050503E-002
           2 ;          17 ;           2 ;          10 ;   1.8445316565409195E-002
           3 ;          17 ;           2 ;          10 ;   5.2043604420533878E-014
           1 ;          18 ;           2 ;          10 ;  -2.3465584550325966E-003
           2 ;          18 ;           2 ;          10 ;   1.8763330915861513E-002
           3 ;          18 ;           2 ;          10 ;   2.6728134506983434E-015
           1 ;           1 ;           3 ;          10 ;   1.6961246077766642E-006
           2 ;           1 ;           3 ;          10 ;  -1.6080959104877168E-006
           3 ;           1 ;           3 ;          10 ;  -1.1150035222517965E-002
           1 ;           2 ;           3 ;          10 ;  -4.3961469535193529E-006
           2 ;           2 ;           3 ;          10 ;  -3.7660131007913690E-008
           3 ;           2 ;           3 ;          10 ;   1.5007531147256490E-003
           1 ;           3 ;           3 ;          10 ;   4.5412322160051523E-006
           2 ;           3 ;           3 ;          10 ;   2.8231761633684644E-006
           3 ;           3 ;           3 ;          10 ;  -1.1149839281288499E-002
           1 ;           4 ;           3 ;          10 ;  -7.2379211779308128E-006
           2 ;           4 ;           3 ;          10 ;  -1.6809959307667903E-006
           3 ;           4 ;           3 ;          10 ;  -1.9058510557033129E-002
           1 ;           5 ;           3 ;          10 ;   6.1466427772644380E-006
           2 ;           5 ;           3 ;          10 ;  -5.8183282736974349E-007
           3 ;           5 ;           3 ;          10 ;   7.9972909826422842E-003
           1 ;           6 ;           3 ;          10 ;  -4.2245617260257071E-006
           2 ;           6 ;           3 ;          10 ;   3.0753399933657435E-006
           3 ;           6 ;           3 ;          10 ;  -1.9058237250377755E-002
           1 ;           7 ;           3 ;          10 ;   6.9397862552563027E-006
           2 ;           7 ;           3 ;          10 ;  -1.0227239781784710E-006
           3 ;           7 ;           3 ;          10 ;  -1.1149836168322377E-002
           1 ;           8 ;           3 ;          10 ;  -7.1322183410279347E-006
           2 ;           8 ;           3 ;          10 ;  -1.6803277670238853E-006
           3 ;           8 ;           3 ;          10 ;  -1.9058496841685934E-002
           1 ;           9 ;           3 ;          10 ;   8.6414348105435603E-006
           2 ;           9 ;           3 ;          10 ;   2.3566837379305148E-006
           3 ;           9 ;           3 ;          10 ;  0.10870875504092845     
           1 ;          10 ;           3 ;          10 ;  -4.1847656757612889E-006
           2 ;          10 ;           3 ;          10 ;   7.7387805454853383E-008
           3 ;          10 ;           3 ;          10 ; -0.20536536960362503     
           1 ;          11 ;           3 ;          10 ;   3.8996792473395661E-006
           2 ;          11 ;           3 ;          10 ;  -4.8019834514975456E-006
           3 ;          11 ;           3 ;          10 ;  0.10871624834878237     
           1 ;          12 ;           3 ;          10 ;  -4.2936093967386911E-006
           2 ;          12 ;           3 ;          10 ;   2.8463957834847837E-006
           3 ;          12 ;           3 ;          10 ;  -1.9059080793569636E-002
           1 ;          13 ;           3 ;          10 ;   4.5564108560731672E-006
           2 ;          13 ;           3 ;          10 ;   1.9443159170929303E-006
           3 ;          13 ;           3 ;          10 ;   7.9972862448600968E-003
           1 ;          14 ;           3 ;          10 ;  -1.6647508024113725E-006
           2 ;          14 ;           3 ;          10 ;  -1.5132956321869046E-006
           3 ;          14 ;           3 ;          10 ;  -1.9058236765163310E-002
           1 ;          15 ;           3 ;          10 ;   1.1692479746065164E-009
           2 ;          15 ;           3 ;          10 ;   2.1977923938953280E-006
           3 ;          15 ;           3 ;          10 ;  0.10871634895292244     
           1 ;          16 ;           3 ;          10 ;  -1.7577056436093023E-006
           2 ;          16 ;           3 ;          10 ;  -1.3998285440620146E-006
           3 ;          16 ;           3 ;          10 ;  -1.9059094107488211E-002
           1 ;          17 ;           3 ;          10 ;   3.1543142872719961E-006
           2 ;          17 ;           3 ;          10 ;  -8.0227005012204688E-007
           3 ;          17 ;           3 ;          10 ;   7.9976103321064852E-003
           1 ;          18 ;           3 ;          10 ;  -4.6851294097077042E-006
           2 ;          18 ;           3 ;          10 ;  -1.9211041138508180E-007
           3 ;          18 ;           3 ;          10 ;   1.5112773092166342E-003
writedynmat: Saving into a file the force constant matrix

siesta: E_KS(eV) =            -3135.0371

siesta: E_KS - E_eggbox =     -3135.0371

siesta: Atomic forces (eV/Ang):
----------------------------------------
   Tot    0.000017    0.000006    0.000000
----------------------------------------
   Max    0.000025
   Res    0.000020    sqrt( Sum f_i^2 / 3N )
----------------------------------------
   Max    0.000025    constrained

Stress-tensor-Voigt (kbar):       -0.39       -0.39        0.09        0.00        0.00       -0.00
(Free)E + p*V (eV/cell)    -3134.9885
Target enthalpy (eV/cell)    -3135.0371

siesta: Program's energy decomposition (eV):
siesta: Ebs     =     -1023.607718
siesta: Eions   =      4185.345278
siesta: Ena     =       432.038396
siesta: Ekin    =      2095.933654
siesta: Enl     =      -622.391107
siesta: Eso     =         0.000000
siesta: Eldau   =         0.000000
siesta: DEna    =        13.448752
siesta: DUscf   =         2.722979
siesta: DUext   =         0.000000
siesta: Enegf   =         0.000000
siesta: Exc     =      -871.444501
siesta: eta*DQ  =         0.000000
siesta: Emadel  =         0.000000
siesta: Emeta   =         0.000000
siesta: Emolmec =         0.000000
siesta: Ekinion =         0.000000
siesta: Eharris =     -3135.037104
siesta: Etot    =     -3135.037104
siesta: FreeEng =     -3135.037104

siesta: Final energy (eV):
siesta:  Band Struct. =   -1023.607718
siesta:       Kinetic =    2095.933654
siesta:       Hartree =    3133.005660
siesta:       Eldau   =       0.000000
siesta:       Eso     =       0.000000
siesta:    Ext. field =       0.000000
siesta:       Enegf   =       0.000000
siesta:   Exch.-corr. =    -871.444501
siesta:  Ion-electron =   -8245.632503
siesta:       Ion-ion =     753.100586
siesta:       Ekinion =       0.000000
siesta:         Total =   -3135.037104
siesta:         Fermi =      -5.053591

siesta: Stress tensor (static) (eV/Ang**3):
siesta:    -0.000246    0.000000    0.000000
siesta:     0.000000   -0.000246    0.000000
siesta:    -0.000000    0.000000    0.000058

siesta: Cell volume =        335.190734 Ang**3

siesta: Pressure (static):
siesta:                Solid            Molecule  Units
siesta:           0.00000158          0.00000158  Ry/Bohr**3
siesta:           0.00014492          0.00014536  eV/Ang**3
siesta:           0.23219641          0.23289269  kBar
(Free)E+ p_basis*V_orbitals  =       -3132.026700
(Free)Eharris+ p_basis*V_orbitals  =       -3132.026700

siesta: Electric dipole (a.u.)  =    0.000000    0.000000   -0.000000
siesta: Electric dipole (Debye) =    0.000000    0.000000   -0.000000

timer: Elapsed wall time (sec) =     274.185
timer: CPU execution times (sec):

Routine            Calls   Time/call    Tot.time        %
siesta                 1     273.843     273.843   100.00
Setup                  1       0.225       0.225     0.08
bands                  1       0.000       0.000     0.00
KSV_init               1       0.000       0.000     0.00
IterGeom               1     273.612     273.612    99.92
state_init             1       0.057       0.057     0.02
hsparse                1       0.017       0.017     0.01
overlap                1       0.033       0.033     0.01
Setup_H0               1       1.709       1.709     0.62
naefs                  2       0.001       0.001     0.00
MolMec                 2       0.000       0.000     0.00
kinefsm                2       0.017       0.035     0.01
nlefsm                 2       0.121       0.241     0.09
DHSCF_Init             1       1.509       1.509     0.55
DHSCF1                 1       0.047       0.047     0.02
INITMESH               1       0.000       0.000     0.00
DHSCF2                 1       1.462       1.462     0.53
REMESH                 1       0.190       0.190     0.07
REORD                338       0.001       0.313     0.11
PHION                  1       0.996       0.996     0.36
COMM_BSC             196       0.001       0.187     0.07
POISON                76       0.033       2.511     0.92
fft                  152       0.011       1.698     0.62
IterSCF                9       1.093       9.835     3.59
setup_H               10       0.638       6.385     2.33
DHSCF                 27       2.792      75.395    27.53
DHSCF3                27       0.531      14.326     5.23
rhoofd                75       0.253      19.010     6.94
CellXC                27       0.071       1.926     0.70
cellXC                75       0.073       5.482     2.00
vmat                  47       0.264      12.404     4.53
compute_dm             9       0.382       3.435     1.25
diagon                 9       0.381       3.430     1.25
c-eigval             198       0.004       0.827     0.30
c-buildHS            198       0.002       0.318     0.12
cdiag              13620       0.000       3.954     1.44
cdiag1             13620       0.000       0.211     0.08
cdiag2             13620       0.000       0.660     0.24
cdiag3             13620       0.000       2.493     0.91
c-eigvec             198       0.008       1.547     0.56
cdiag4             13422       0.000       0.322     0.12
c-buildD             198       0.005       1.053     0.38
MIXER                  8       0.001       0.005     0.00
PostSCF                1       2.024       2.024     0.74
DHSCF4                 1       1.300       1.300     0.47
dfscf                  1       1.044       1.044     0.38
overfsm                1       0.007       0.007     0.00
Linres                 1     259.984     259.984    94.94
LRatom                 2     119.235     238.471    87.08
dvmat                  2       0.691       1.382     0.50
DHSCF-LR              16       3.735      59.768    21.83
dfscf2                 4       1.972       7.888     2.88
CellXC-LR             48       0.076       3.640     1.33
dynamat               12       1.956      23.475     8.57
dhinit                 2       0.006       0.012     0.00
dvnloc                 4       0.316       1.264     0.46
vmat-LR               36       0.264       9.492     3.47
delrho                12      15.954     191.453    69.91
delrhok               12      15.954     191.453    69.91
delrhok-psik         264       0.008       2.179     0.80
WriteLRDM             12       0.003       0.034     0.01
ddsmat                 2       0.041       0.082     0.03
state_analysis         1       0.000       0.000     0.00
siesta_move            1       0.000       0.000     0.00
Analysis               1       0.003       0.003     0.00
optical                1       0.000       0.000     0.00
  
>> End of run:  25-JUN-2018  12:46:48
Job completed
