Siesta Version  : Linres_parallel652--trunk680
Architecture    : unknown
Compiler version: GNU Fortran (Ubuntu 4.8.4-2ubuntu1~14.04.3) 4.8.4
Compiler flags  : gfortran -O2 -fPIC -ftree-vectorize
PP flags        : -fbounds-check -g -fcheck=all -DFC_HAVE_FLUSH -DFC_HAVE_ABORT -fbacktrace -DL1 -DSIESTA__DIAG_2STAGE
Libraries       : libsiestaLAPACK.a libsiestaBLAS.a libsiestaLAPACK.a libsiestaBLAS.a -L/home/llikewise-open/ICN/sillera/Desktop/1/LinresLibxc/libxc-2.2.3/INSTAL/lib -l xcf90 -l xc
SERIAL version

* Running in serial mode
>> Start of run:  25-JUN-2018  13:13:31

                           ***********************       
                           *  WELCOME TO SIESTA  *       
                           ***********************       

reinit: Reading from standard input
reinit: Dumped input in INPUT_TMP.39213
************************** Dump of input data file ****************************
#
# FDF for a h2 molecule
#
SystemName          h2 molecule
SystemLabel         h2linres
NumberOfSpecies     1
NumberOfAtoms       2
%block ChemicalSpeciesLabel
 1  1  H 1.007825
%endblock ChemicalSpeciesLabel
LatticeConstant 10.00 Ang
% block LatticeVectors
1.0 0.0 0.0
0.0 1.0 0.0
0.0 0.0 1.0
% endblock LatticeVectors
AtomicCoordinatesFormat  Ang
%block AtomicCoordinatesAndAtomicSpecies
	0.000 0.000 0.000 1
    	0.800 0.000 0.000 1
%endblock AtomicCoordinatesAndAtomicSpecies
MD.TypeOfRun	LR
MD.FCfirst  1
MD.FClast   2
************************** End of input data file *****************************

reinit: -----------------------------------------------------------------------
reinit: System Name: h2 molecule
reinit: -----------------------------------------------------------------------
reinit: System Label: h2linres
reinit: -----------------------------------------------------------------------

initatom: Reading input for the pseudopotentials and atomic orbitals ----------
Species number:   1 Atomic number:    1 Label: H

Ground state valence configuration:   1s01
Reading pseudopotential information in formatted form from H.psf

Valence configuration for pseudopotential generation:
1s( 1.00) rc: 1.25
2p( 0.00) rc: 1.25
3d( 0.00) rc: 1.25
4f( 0.00) rc: 1.25
For H, standard SIESTA heuristics set lmxkb to 2
 (one more than the basis l, including polarization orbitals).
Use PS.lmax or PS.KBprojectors blocks to override.

<basis_specs>
===============================================================================
H                    Z=   1    Mass=  1.0100        Charge= 0.17977+309
Lmxo=0 Lmxkb= 2    BasisType=split      Semic=F
L=0  Nsemic=0  Cnfigmx=1
          n=1  nzeta=2  polorb=1
            splnorm:   0.15000    
               vcte:    0.0000    
               rinn:    0.0000    
               qcoe:    0.0000    
               qyuk:    0.0000    
               qwid:   0.10000E-01
                rcs:    0.0000      0.0000    
            lambdas:    1.0000      1.0000    
-------------------------------------------------------------------------------
L=0  Nkbl=1  erefs: 0.17977+309
L=1  Nkbl=1  erefs: 0.17977+309
L=2  Nkbl=1  erefs: 0.17977+309
===============================================================================
</basis_specs>

atom: Called for H                     (Z =   1)

read_vps: Pseudopotential generation method:
read_vps: ATM3      Troullier-Martins                       
Total valence charge:    1.00000

xc_check: Exchange-correlation functional:
xc_check: Ceperley-Alder
V l=0 = -2*Zval/r beyond r=  1.2343
V l=1 = -2*Zval/r beyond r=  1.2189
V l=2 = -2*Zval/r beyond r=  1.2189
All V_l potentials equal beyond r=  1.2343
This should be close to max(r_c) in ps generation
All pots = -2*Zval/r beyond r=  1.2343

VLOCAL1: 99.0% of the norm of Vloc inside     28.493 Ry
VLOCAL1: 99.9% of the norm of Vloc inside     64.935 Ry
atom: Maximum radius for 4*pi*r*r*local-pseudopot. charge    1.45251
atom: Maximum radius for r*vlocal+2*Zval:    1.21892
GHOST: No ghost state for L =  0
GHOST: No ghost state for L =  1
GHOST: No ghost state for L =  2

KBgen: Kleinman-Bylander projectors: 
   l= 0   rc=  1.364359   el= -0.467325   Ekb= -2.005361   kbcos= -0.336422
   l= 1   rc=  1.434438   el=  0.001430   Ekb= -0.501708   kbcos= -0.021697
   l= 2   rc=  1.470814   el=  0.002365   Ekb= -0.190555   kbcos= -0.002281

KBgen: Total number of  Kleinman-Bylander projectors:    9
atom: -------------------------------------------------------------------------

atom: SANKEY-TYPE ORBITALS:
atom: Selected multiple-zeta basis: split     

SPLIT: Orbitals with angular momentum L= 0

SPLIT: Basis orbitals for state 1s

SPLIT: PAO cut-off radius determined from an
SPLIT: energy shift=  0.020000 Ry

   izeta = 1
                 lambda =    1.000000
                     rc =    4.828263
                 energy =   -0.449375
                kinetic =    0.929372
    potential(screened) =   -1.378747
       potential(ionic) =   -1.915047

   izeta = 2
                 rmatch =    3.854947
              splitnorm =    0.150000
                 energy =   -0.336153
                kinetic =    1.505294
    potential(screened) =   -1.841447
       potential(ionic) =   -2.413582

POLgen: Perturbative polarization orbital with L=  1

POLgen: Polarization orbital for state 1s

   izeta = 1
                     rc =    4.828263
                 energy =    0.706972
                kinetic =    1.396397
    potential(screened) =   -0.689424
       potential(ionic) =   -1.169792
atom: Total number of Sankey-type orbitals:  5

atm_pop: Valence configuration (for local Pseudopot. screening):
 1s( 1.00)                                                            
Vna: chval, zval:    1.00000   1.00000

Vna:  Cut-off radius for the neutral-atom potential:   4.828263

atom: _________________________________________________________________________

prinput: Basis input ----------------------------------------------------------

PAO.BasisType split     

%block ChemicalSpeciesLabel
    1    1 H                       # Species index, atomic number, species label
%endblock ChemicalSpeciesLabel

%block PAO.Basis                 # Define Basis set
H                     1                    # Species label, number of l-shells
 n=1   0   2 P   1                   # n, l, Nzeta, Polarization, NzetaPol
   4.828      3.855   
   1.000      1.000   
%endblock PAO.Basis

prinput: ----------------------------------------------------------------------

coor:   Atomic-coordinates input format  =     Cartesian coordinates
coor:                                          (in Angstroms)

siesta: Atomic coordinates (Bohr) and species
siesta:      0.00000   0.00000   0.00000  1        1
siesta:      1.51178   0.00000   0.00000  1        2

siesta: System type = molecule  

initatomlists: Number of atoms, orbitals, and projectors:      2    10    18

siesta: ******************** Simulation parameters ****************************
siesta:
siesta: The following are some of the parameters of the simulation.
siesta: A complete list of the parameters used, including default values,
siesta: can be found in file out.fdf
siesta:
redata: Spin configuration                          = none
redata: Number of spin components                   = 1
redata: Time-Reversal Symmetry                      = T
redata: Spin-spiral                                 = F
redata: Long output                                 =   F
redata: Number of Atomic Species                    =        1
redata: Charge density info will appear in .RHO file
redata: Write Mulliken Pop.                         = NO
redata: Mesh Cutoff                                 =   300.0000 Ry
redata: Net charge of the system                    =     0.0000 |e|
redata: Min. number of SCF Iter                     =        0
redata: Max. number of SCF Iter                     =     1000
redata: SCF convergence failure will abort job
redata: SCF mix quantity                            = Hamiltonian
redata: Mix DM or H after convergence               =   F
redata: Recompute H after scf cycle                 =   F
redata: Mix DM in first SCF step                    =   T
redata: Write Pulay info on disk                    =   F
redata: New DM Mixing Weight                        =     0.2500
redata: New DM Occupancy tolerance                  = 0.000000000001
redata: No kicks to SCF
redata: DM Mixing Weight for Kicks                  =     0.5000
redata: Require Harris convergence for SCF          =   F
redata: Harris energy tolerance for SCF             =     0.000100 eV
redata: Require DM convergence for SCF              =   T
redata: DM tolerance for SCF                        =     0.000100
redata: Require EDM convergence for SCF             =   F
redata: EDM tolerance for SCF                       =     0.001000 eV
redata: Require H convergence for SCF               =   T
redata: Hamiltonian tolerance for SCF               =     0.001000 eV
redata: Require (free) Energy convergence for SCF   =   F
redata: (free) Energy tolerance for SCF             =     0.000100 eV
redata: Using Saved Data (generic)                  =   F
redata: Use continuation files for DM               =   F
redata: Neglect nonoverlap interactions             =   F
redata: Method of Calculation                       = Diagonalization
redata: Electronic Temperature                      =   299.9869 K
redata: Fix the spin of the system                  =   F
redata: Max. number of TDED Iter                    =        1
redata: Number of TDED substeps                     =        3
redata: Dynamics option                             = Single-point calculation
mix.SCF: Pulay mixing                            = Pulay
mix.SCF:    Variant                              = stable
mix.SCF:    History steps                        = 2
mix.SCF:    Linear mixing weight                 =     0.250000
mix.SCF:    Mixing weight                        =     0.250000
mix.SCF:    SVD condition                        = 0.1000E-07
redata: ***********************************************************************

%block SCF.Mixers
  Pulay
%endblock SCF.Mixers

%block SCF.Mixer.Pulay
  # Mixing method
  method pulay
  variant stable

  # Mixing options
  weight 0.2500
  weight.linear 0.2500
  history 2
%endblock SCF.Mixer.Pulay

DM_history_depth set to one: no extrapolation allowed by default for geometry relaxation
Size of DM history Fstack: 1
Total number of electrons:     2.000000
Total ionic charge:     2.000000
 Kpoints in:            1 . Kpoints trimmed:            1

siesta: k-grid: Number of k-points =     1
siesta: k-grid: Cutoff (effective) =     5.000 Ang
siesta: k-grid: Supercell and displacements
siesta: k-grid:    1   0   0      0.000
siesta: k-grid:    0   1   0      0.000
siesta: k-grid:    0   0   1      0.000

diag: Algorithm                                     = D&C
diag: Used triangular part                          = Lower
diag: Absolute tolerance                            =  0.100E-15
diag: Orthogonalization factor                      =  0.100E-05
diag: Memory factor                                 =  1.0000


ts: **************************************************************
ts: Save H and S matrices                           =    F
ts: Save DM and EDM matrices                        =    F
ts: Fix Hartree potential                           =    F
ts: Only save the overlap matrix S                  =    F
ts: **************************************************************

************************ Begin: TS CHECKS AND WARNINGS ************************
************************ End: TS CHECKS AND WARNINGS **************************


                     ====================================
                        Single-point calculation
                     ====================================

outcell: Unit cell vectors (Ang):
       10.000000    0.000000    0.000000
        0.000000   10.000000    0.000000
        0.000000    0.000000   10.000000

outcell: Cell vector modules (Ang)   :   10.000000   10.000000   10.000000
outcell: Cell angles (23,13,12) (deg):     90.0000     90.0000     90.0000
outcell: Cell volume (Ang**3)        :   1000.0000
<dSpData1D:S at geom step 0
  <sparsity:sparsity for geom step 0
    nrows_g=10 nrows=10 sparsity=1.0000 nnzs=100, refcount: 7>
  <dData1D:(new from dSpData1D) n=100, refcount: 1>
refcount: 1>
new_DM -- step:     1
Initializing Density Matrix...
DM filled with atomic data:
<dSpData2D:DM initialized from atoms
  <sparsity:sparsity for geom step 0
    nrows_g=10 nrows=10 sparsity=1.0000 nnzs=100, refcount: 8>
  <dData2D:DM n=100 m=1, refcount: 1>
refcount: 1>

No. of atoms with KB's overlaping orbs in proc 0. Max # of overlaps:       2      10
New grid distribution:   1
           1       1:   54    1:   54    1:   54

InitMesh: MESH =   108 x   108 x   108 =     1259712
InitMesh: (bp) =    54 x    54 x    54 =      157464
InitMesh: Mesh cutoff (required, used) =   300.000   322.366 Ry
ExtMesh (bp) on 0 =   110 x   110 x   110 =     1331000
PhiOnMesh: Number of (b)points on node 0 =               157464
PhiOnMesh: nlist on node 0 =               107783

stepf: Fermi-Dirac step function

siesta: Program's energy decomposition (eV):
siesta: Ebs     =       -18.655965
siesta: Eions   =        39.414643
siesta: Ena     =        11.131311
siesta: Ekin    =        28.285370
siesta: Enl     =        -9.401585
siesta: Eso     =         0.000000
siesta: Eldau   =         0.000000
siesta: DEna    =        -3.972216
siesta: DUscf   =         0.630876
siesta: DUext   =         0.000000
siesta: Enegf   =         0.000000
siesta: Exc     =       -17.743110
siesta: eta*DQ  =         0.000000
siesta: Emadel  =         0.000000
siesta: Emeta   =         0.000000
siesta: Emolmec =         0.000000
siesta: Ekinion =         0.000000
siesta: Eharris =       -34.846190
siesta: Etot    =       -30.483998
siesta: FreeEng =       -30.483998

        iscf     Eharris(eV)        E_KS(eV)     FreeEng(eV)     dDmax    Ef(eV) dHmax(eV)
   scf:    1      -34.846190      -30.483998      -30.483998  0.893910 -3.587289  2.577595
timer: Routine,Calls,Time,% = IterSCF        1       0.937  54.34
   scf:    2      -30.536987      -30.510852      -30.510852  0.019483 -2.963732  1.809054
   scf:    3      -30.561140      -30.538279      -30.538279  0.043750 -1.512206  0.021809
   scf:    4      -30.538276      -30.538278      -30.538278  0.000351 -1.526991  0.007296
   scf:    5      -30.538279      -30.538279      -30.538279  0.000088 -1.527655  0.005310
   scf:    6      -30.538280      -30.538279      -30.538279  0.000244 -1.529363  0.000257
   scf:    7      -30.538279      -30.538279      -30.538279  0.000005 -1.529320  0.000166

SCF Convergence by DM+H criterion
max |DM_out - DM_in|         :     0.0000050836
max |H_out - H_in|      (eV) :     0.0001656548
SCF cycle converged after 7 iterations

Using DM_out to compute the final energy and forces
No. of atoms with KB's overlaping orbs in proc 0. Max # of overlaps:       2      10

                     ====================================
                               Linres calculation
                     ====================================
Linres: Initial perturbed atom      1
  Linres: Final perturbed atom      2
        Linres: Tolerance (DM)   0.00100

                     ====================================
                               Linres atom=      1
                     ====================================
        iscf     dDmax
 lr-scf:   1  0.198439
 lr-scf:   2  0.090238
 lr-scf:   3  0.063329
 lr-scf:   4  0.044459
 lr-scf:   5  0.031223
 lr-scf:   6  0.021935
 lr-scf:   7  0.015416
 lr-scf:   8  0.010839
 lr-scf:   9  0.007624
 lr-scf:  10  0.005365
 lr-scf:  11  0.003777
 lr-scf:  12  0.002661
 lr-scf:  13  0.001875
 lr-scf:  14  0.001322
 lr-scf:  15  0.000933

writedynmat: Saving into a file calculated dynamical matrix

                     ====================================
                               Linres atom=      2
                     ====================================
        iscf     dDmax
 lr-scf:   1  0.394296
 lr-scf:   2  0.180446
 lr-scf:   3  0.126640
 lr-scf:   4  0.088906
 lr-scf:   5  0.062437
 lr-scf:   6  0.043864
 lr-scf:   7  0.030828
 lr-scf:   8  0.021675
 lr-scf:   9  0.015246
 lr-scf:  10  0.010729
 lr-scf:  11  0.007554
 lr-scf:  12  0.005321
 lr-scf:  13  0.003750
 lr-scf:  14  0.002644
 lr-scf:  15  0.001866
 lr-scf:  16  0.001317
 lr-scf:  17  0.000931

writedynmat: Saving into a file calculated dynamical matrix
 ----- COMPLETE DYNAMICAL MATRIX -----
 xyz;Beta;xyz;Alpha;dynmat
           1 ;           1 ;           1 ;           1 ; -0.62996965436571073     
           2 ;           1 ;           1 ;           1 ;  -9.2305812473731405E-017
           3 ;           1 ;           1 ;           1 ;   4.9482453746474779E-013
           1 ;           2 ;           1 ;           1 ;  0.62987609789878241     
           2 ;           2 ;           1 ;           1 ;   5.7439354237744257E-016
           3 ;           2 ;           1 ;           1 ;   2.0059987918638824E-013
           1 ;           1 ;           2 ;           1 ;  -2.3689605710571458E-017
           2 ;           1 ;           2 ;           1 ;  -5.6900050634224458E-003
           3 ;           1 ;           2 ;           1 ;  -1.0583557561934275E-016
           1 ;           2 ;           2 ;           1 ;  -2.3051607259809718E-016
           2 ;           2 ;           2 ;           1 ;   5.7249772096709256E-003
           3 ;           2 ;           2 ;           1 ;  -1.1608391327495624E-016
           1 ;           1 ;           3 ;           1 ;  -4.0963143108802160E-013
           2 ;           1 ;           3 ;           1 ;   8.2144778768689216E-016
           3 ;           1 ;           3 ;           1 ;  -5.6900050633044569E-003
           1 ;           2 ;           3 ;           1 ;   4.7279329330413403E-013
           2 ;           2 ;           3 ;           1 ;  -7.2460436015771537E-016
           3 ;           2 ;           3 ;           1 ;   5.7249772096298474E-003
           1 ;           1 ;           1 ;           2 ;  0.62988274265747024     
           2 ;           1 ;           1 ;           2 ;  -2.9156554213753235E-016
           3 ;           1 ;           1 ;           2 ;  -1.8198220922945515E-013
           1 ;           2 ;           1 ;           2 ; -0.62978045302522956     
           2 ;           2 ;           1 ;           2 ;   3.2931470570039465E-016
           3 ;           2 ;           1 ;           2 ;  -5.0018720636991404E-013
           1 ;           1 ;           2 ;           2 ;  -3.1787240686322570E-017
           2 ;           1 ;           2 ;           2 ;   5.7252466174059907E-003
           3 ;           1 ;           2 ;           2 ;   4.6774597814467694E-017
           1 ;           2 ;           2 ;           2 ;   1.1932968314465000E-017
           2 ;           2 ;           2 ;           2 ;  -5.7608463691356665E-003
           3 ;           2 ;           2 ;           2 ;   6.5962985295425496E-016
           1 ;           1 ;           3 ;           2 ;  -4.5713107118198946E-013
           2 ;           1 ;           3 ;           2 ;  -5.3262974849462638E-016
           3 ;           1 ;           3 ;           2 ;   5.7252466173793454E-003
           1 ;           2 ;           3 ;           2 ;   4.2192145397564279E-013
           2 ;           2 ;           3 ;           2 ;   8.2922081667265367E-016
           3 ;           2 ;           3 ;           2 ;  -5.7608463689305806E-003
writedynmat: Saving into a file the force constant matrix

siesta: E_KS(eV) =              -30.5383

siesta: E_KS - E_eggbox =       -30.5383

siesta: Atomic forces (eV/Ang):
----------------------------------------
   Tot   -0.002187   -0.000000   -0.000000
----------------------------------------
   Max    0.225485
   Res    0.129554    sqrt( Sum f_i^2 / 3N )
----------------------------------------
   Max    0.225485    constrained

Stress-tensor-Voigt (kbar):        0.29       -0.00       -0.00        0.00        0.00        0.00
(Free)E + p*V (eV/cell)      -30.5983
Target enthalpy (eV/cell)      -30.5383

siesta: Program's energy decomposition (eV):
siesta: Ebs     =       -19.554959
siesta: Eions   =        39.414643
siesta: Ena     =        11.131311
siesta: Ekin    =        26.824163
siesta: Enl     =        -8.986522
siesta: Eso     =         0.000000
siesta: Eldau   =         0.000000
siesta: DEna    =        -3.247255
siesta: DUscf   =         0.441007
siesta: DUext   =         0.000000
siesta: Enegf   =         0.000000
siesta: Exc     =       -17.286341
siesta: eta*DQ  =         0.000000
siesta: Emadel  =         0.000000
siesta: Emeta   =         0.000000
siesta: Emolmec =         0.000000
siesta: Ekinion =         0.000000
siesta: Eharris =       -30.538279
siesta: Etot    =       -30.538279
siesta: FreeEng =       -30.538279

siesta: Final energy (eV):
siesta:  Band Struct. =     -19.554959
siesta:       Kinetic =      26.824163
siesta:       Hartree =      26.205037
siesta:       Eldau   =       0.000000
siesta:       Eso     =       0.000000
siesta:    Ext. field =       0.000000
siesta:       Enegf   =       0.000000
siesta:   Exch.-corr. =     -17.286341
siesta:  Ion-electron =     -76.229037
siesta:       Ion-ion =       9.947899
siesta:       Ekinion =       0.000000
siesta:         Total =     -30.538279
siesta:         Fermi =      -1.529320

siesta: Atomic forces (eV/Ang):
siesta:      1    0.223298   -0.000000   -0.000000
siesta:      2   -0.225485   -0.000000   -0.000000
siesta: ----------------------------------------
siesta:    Tot   -0.002187   -0.000000   -0.000000

siesta: Stress tensor (static) (eV/Ang**3):
siesta:     0.000180   -0.000000   -0.000000
siesta:     0.000000   -0.000000   -0.000000
siesta:     0.000000    0.000000   -0.000000

siesta: Cell volume =       1000.000000 Ang**3

siesta: Pressure (static):
siesta:                Solid            Molecule  Units
siesta:          -0.00000065         -0.00000000  Ry/Bohr**3
siesta:          -0.00005999         -0.00000015  eV/Ang**3
siesta:          -0.09611063         -0.00023894  kBar
(Free)E+ p_basis*V_orbitals  =         -30.100654
(Free)Eharris+ p_basis*V_orbitals  =         -30.100654

siesta: Electric dipole (a.u.)  =   -0.000008    0.000000   -0.000000
siesta: Electric dipole (Debye) =   -0.000019    0.000000   -0.000000

timer: Elapsed wall time (sec) =      78.789
timer: CPU execution times (sec):

Routine            Calls   Time/call    Tot.time        %
siesta                 1      78.582      78.582   100.00
Setup                  1       0.092       0.092     0.12
bands                  1       0.000       0.000     0.00
KSV_init               1       0.000       0.000     0.00
IterGeom               1      78.489      78.489    99.88
state_init             1       0.011       0.011     0.01
hsparse                1       0.000       0.000     0.00
overlap                1       0.011       0.011     0.01
Setup_H0               1       0.684       0.684     0.87
naefs                  2       0.000       0.000     0.00
MolMec                 2       0.000       0.000     0.00
kinefsm                2       0.004       0.008     0.01
nlefsm                 2       0.017       0.035     0.04
DHSCF_Init             1       0.641       0.641     0.82
DHSCF1                 1       0.062       0.062     0.08
INITMESH               1       0.000       0.000     0.00
DHSCF2                 1       0.578       0.578     0.74
REMESH                 1       0.027       0.027     0.03
REORD                634       0.006       3.793     4.83
PHION                  1       0.214       0.214     0.27
COMM_BSC             332       0.006       2.067     2.63
POISON               154       0.263      40.462    51.49
fft                  308       0.101      31.185    39.68
IterSCF                7       0.538       3.765     4.79
setup_H                8       0.471       3.764     4.79
DHSCF                 45       1.728      77.754    98.95
DHSCF3                45       0.444      19.973    25.42
rhoofd               153       0.029       4.370     5.56
CellXC                45       0.061       2.755     3.51
cellXC               153       0.063       9.597    12.21
vmat                 105       0.025       2.672     3.40
compute_dm             7       0.000       0.000     0.00
diagon                 7       0.000       0.000     0.00
r-eigvec               7       0.000       0.000     0.00
r-buildHS              7       0.000       0.000     0.00
rdiag                  7       0.000       0.000     0.00
rdiag1                 7       0.000       0.000     0.00
rdiag2                 7       0.000       0.000     0.00
rdiag3                 7       0.000       0.000     0.00
rdiag4                 7       0.000       0.000     0.00
r-buildD               7       0.000       0.000     0.00
MIXER                  6       0.000       0.000     0.00
PostSCF                1       0.763       0.763     0.97
DHSCF4                 1       0.297       0.297     0.38
dfscf                  1       0.210       0.210     0.27
overfsm                1       0.000       0.000     0.00
Linres                 1      73.266      73.266    93.23
LRatom                 2      33.729      67.458    85.84
dvmat                  2       0.071       0.141     0.18
DHSCF-LR              36       1.597      57.484    73.15
dfscf2                 4       0.190       0.758     0.96
CellXC-LR            108       0.077       8.292    10.55
dynamat               12       0.250       2.996     3.81
dhinit                 2       0.000       0.000     0.00
dvnloc                 4       0.001       0.005     0.01
vmat-LR               96       0.025       2.444     3.11
delrho                32       0.000       0.002     0.00
delrhog               96       0.000       0.001     0.00
WriteLRDM             32       0.000       0.003     0.00
ddsmat                 2       0.000       0.000     0.00
state_analysis         1       0.000       0.000     0.00
siesta_move            1       0.000       0.000     0.00
Analysis               1       0.000       0.000     0.00
optical                1       0.000       0.000     0.00
  
>> End of run:  25-JUN-2018  13:14:49
Job completed
