Siesta Version  : trunk-755
Architecture    : x86_64-unknown-linux
Compiler version: GNU Fortran (GCC) 4.9.3
Compiler flags  : mpif90 -O3 -msse4.2 -m64 -fPIC -ftree-vectorize -funroll-loops -fprefetch-looop-arrays -fno-second-underscore -floop-block -fgraphite -Wall -I/home/pablolopez/Programs/bigdft/build_solver/install/include -L/home/pablolopez/Programs/bigdft/build_solver/install/lib -lPSolver-1 -lfutile-1 -llapack -lblas -ldl -lrt -lyaml
PP flags        : -DCDF -DNCDF -DNCDF_4 -DNCDF_PARALLEL -DMPI -DUSE_GEMM3M
Libraries       : libncdf.a libfdict.a -Wl,--start-group /home/pedro/local/opt/openblas/0.2.14//g4.9.3/lib/libopenblas.a /home/pedro/local/opt/lapack/rev1558/g4.9.3/lib/liblapack.a /home/pedro/local/opt/scalapack/rev200/ompi1.8.5-g4.9.3/lib/libscalapack.a -Wl,--end-group -lpthread -lm -L/home/pedro/local/opt/netcdf-fortran/4.4.2/ompi1.8.5-g4.9.3/lib -lnetcdff -L/home/pedro/local/opt/hdf5/1.8.14/ompi1.8.5-g4.9.3/lib -lhdf5hl_fortran -lhdf5_fortran -lhdf5_hl -lhdf5 -L/home/pedro/local/opt/zlib/1.2.8/g4.9.3/lib -lz -L/home/pedro/local/opt/openmpi/1.8.5/g4.9.3/lib -lmpi libncdf.a libfdict.a -I/home/pablolopez/Programs/bigdft/build_solver/install/include -L/home/pablolopez/Programs/bigdft/build_solver/install/lib -lPSolver-1 -lfutile-1 -ldl -lrt -lyaml -llapack -lblas
Directory       : /home/pablolopez/Siesta/Psolver/neutral/Psolver_parallel
PARALLEL version
GEMM3M support
NetCDF support
NetCDF-4 support
NetCDF-4 MPI-IO support

* Running on 16 nodes in parallel
>> Start of run:  24-FEB-2020  12:46:26

                           ***********************       
                           *  WELCOME TO SIESTA  *       
                           ***********************       

reinit: Reading from standard input
reinit: Dumped input in INPUT_TMP.37393
************************** Dump of input data file ****************************
SystemName wfc
SystemLabel wfc
################################################################
xc.functional GGA
xc.authors PBE
Atom.Ignore.Ghosts
MeshCutoff 50.0 Ry
SolutionMethod diagon
ElectronicTemperature 5 meV
DM.MixingWeight 0.2
DM.NumberPulay 3
%SaveBaderCharge
################################################################
#TDED.WF.Initialize
WriteCoorXmol .true.
#SaveRho .true.
#SaveElectrostaticPotential .true.
###############################################################
NumberOfAtoms 12
NumberOfSpecies 4
%block ChemicalSpeciesLabel
1 8 O_pbe
2 1 H_pbe
3 6 C_pbe
4 7 N_pbe
%endblock ChemicalSpeciesLabel
PAO.BasisSize DZP
PAO.EnergyShift 20 meV
UseBIGDFTsolver .true.
LatticeConstant 20.0 Ang
%block LatticeVectors
1.0 0.0 0.0
0.0 1.0 0.0
0.0 0.0 1.0
%endblock LatticeVectors
AtomicCoordinatesFormat NotScaledCartesianAng
%block AtomicCoordinatesAndAtomicSpecies
 8.83951143908985033391 11.15651941288303247732 11.97761028092852648893   1
 10.46878441908985033391 10.63438912288303247732 7.62480383092852648893   1
 9.95821193908985033391 8.50399274288303247732 12.41502986092852648893    2
 9.34021926908985033391 11.85020750288303247732 9.63408266092852648893    2
 11.17052381908985033391 8.47980542288303247732 8.29834519092852648893    2
 11.09495517908985033391 7.43483425288303247732 10.52538485092852648893   2
 10.01629762908985033391 9.05614563288303247732 11.39475378092852648893   3
 9.47818539908985033391 10.43793581288303247732 11.16482861092852648893   3
 10.31837053908985033391 10.23191900288303247732 8.76987226092852648893   3
 10.57821570908985033391 8.38693932288303247732 10.41318535092852648893   3
 9.65202008908985033391 10.92633263288303247732 9.78280353092852648893    4
 10.69020856908985033391 8.91461806288303247732 9.11423007092852648893    4
%endblock AtomicCoordinatesAndAtomicSpecies
************************** End of input data file *****************************

reinit: -----------------------------------------------------------------------
reinit: System Name: wfc
reinit: -----------------------------------------------------------------------
reinit: System Label: wfc
reinit: -----------------------------------------------------------------------

initatom: Reading input for the pseudopotentials and atomic orbitals ----------
Species number:   1 Atomic number:    8 Label: O_pbe
Species number:   2 Atomic number:    1 Label: H_pbe
Species number:   3 Atomic number:    6 Label: C_pbe
Species number:   4 Atomic number:    7 Label: N_pbe

Ground state valence configuration:   2s02  2p04
Reading pseudopotential information in formatted form from O_pbe.psf

Valence configuration for pseudopotential generation:
2s( 2.00) rc: 1.47
2p( 4.00) rc: 1.47
3d( 0.00) rc: 1.47
4f( 0.00) rc: 1.47
Ground state valence configuration:   1s01
Reading pseudopotential information in formatted form from H_pbe.psf

Valence configuration for pseudopotential generation:
1s( 1.00) rc: 1.31
2p( 0.00) rc: 1.31
3d( 0.00) rc: 0.37
4f( 0.00) rc: 1.31
Ground state valence configuration:   2s02  2p02
Reading pseudopotential information in formatted form from C_pbe.psf

Valence configuration for pseudopotential generation:
2s( 2.00) rc: 1.54
2p( 2.00) rc: 1.54
3d( 0.00) rc: 1.54
4f( 0.00) rc: 1.54
Ground state valence configuration:   2s02  2p03
Reading pseudopotential information in formatted form from N_pbe.psf

Valence configuration for pseudopotential generation:
2s( 2.00) rc: 1.48
2p( 3.00) rc: 1.48
3d( 0.00) rc: 1.48
4f( 0.00) rc: 1.48
For O_pbe, standard SIESTA heuristics set lmxkb to 3
 (one more than the basis l, including polarization orbitals).
Use PS.lmax or PS.KBprojectors blocks to override.
For H_pbe, standard SIESTA heuristics set lmxkb to 2
 (one more than the basis l, including polarization orbitals).
Use PS.lmax or PS.KBprojectors blocks to override.
For C_pbe, standard SIESTA heuristics set lmxkb to 3
 (one more than the basis l, including polarization orbitals).
Use PS.lmax or PS.KBprojectors blocks to override.
For N_pbe, standard SIESTA heuristics set lmxkb to 3
 (one more than the basis l, including polarization orbitals).
Use PS.lmax or PS.KBprojectors blocks to override.

<basis_specs>
===============================================================================
O_pbe                Z=   8    Mass=  16.000        Charge= 0.17977+309
Lmxo=1 Lmxkb= 3    BasisType=split      Semic=F
L=0  Nsemic=0  Cnfigmx=2
          n=1  nzeta=2  polorb=0
            splnorm:   0.15000    
               vcte:    0.0000    
               rinn:    0.0000    
               qcoe:    0.0000    
               qyuk:    0.0000    
               qwid:   0.10000E-01
                rcs:    0.0000      0.0000    
            lambdas:    1.0000      1.0000    
L=1  Nsemic=0  Cnfigmx=2
          n=1  nzeta=2  polorb=1
            splnorm:   0.15000    
               vcte:    0.0000    
               rinn:    0.0000    
               qcoe:    0.0000    
               qyuk:    0.0000    
               qwid:   0.10000E-01
                rcs:    0.0000      0.0000    
            lambdas:    1.0000      1.0000    
-------------------------------------------------------------------------------
L=0  Nkbl=1  erefs: 0.17977+309
L=1  Nkbl=1  erefs: 0.17977+309
L=2  Nkbl=1  erefs: 0.17977+309
L=3  Nkbl=1  erefs: 0.17977+309
===============================================================================
</basis_specs>

atom: Called for O_pbe                 (Z =   8)

read_vps: Pseudopotential generation method:
read_vps: ATM3      Troullier-Martins                       
Total valence charge:    6.00000

read_vps: Pseudopotential includes a core correction:
read_vps: Pseudo-core for xc-correction

xc_check: Exchange-correlation functional:
xc_check: GGA Perdew, Burke & Ernzerhof 1996
V l=0 = -2*Zval/r beyond r=  1.4482
V l=1 = -2*Zval/r beyond r=  1.4482
V l=2 = -2*Zval/r beyond r=  1.4482
V l=3 = -2*Zval/r beyond r=  1.4482
All V_l potentials equal beyond r=  1.4482
This should be close to max(r_c) in ps generation
All pots = -2*Zval/r beyond r=  1.4482

VLOCAL1: 99.0% of the norm of Vloc inside     20.696 Ry
VLOCAL1: 99.9% of the norm of Vloc inside     47.167 Ry
atom: Maximum radius for 4*pi*r*r*local-pseudopot. charge    1.74697
atom: Maximum radius for r*vlocal+2*Zval:    1.52250

KBgen: Kleinman-Bylander projectors: 
GHOST: No ghost state for L =  0
   l= 0   rc=  1.620715   el= -1.757696   Ekb=  4.880948   kbcos=  0.293490
GHOST: No ghost state for L =  1
   l= 1   rc=  1.600578   el= -0.664256   Ekb= -6.909822   kbcos= -0.499892
GHOST: No ghost state for L =  2
   l= 2   rc=  1.703827   el=  0.002031   Ekb= -1.539219   kbcos= -0.006778
GHOST: No ghost state for L =  3
   l= 3   rc=  1.746967   el=  0.003153   Ekb= -0.568983   kbcos= -0.000967

KBgen: Total number of  Kleinman-Bylander projectors:   16
atom: -------------------------------------------------------------------------

atom: SANKEY-TYPE ORBITALS:
atom: Selected multiple-zeta basis: split     

SPLIT: Orbitals with angular momentum L= 0

SPLIT: Basis orbitals for state 2s

SPLIT: PAO cut-off radius determined from an
SPLIT: energy shift=  0.001470 Ry

   izeta = 1
                 lambda =    1.000000
                     rc =    4.351355
                 energy =   -1.756464
                kinetic =    1.524027
    potential(screened) =   -3.280491
       potential(ionic) =  -11.149589

   izeta = 2
                 rmatch =    2.541963
              splitnorm =    0.150000
                 energy =   -1.502082
                kinetic =    2.380757
    potential(screened) =   -3.882839
       potential(ionic) =  -12.390910

SPLIT: Orbitals with angular momentum L= 1

SPLIT: Basis orbitals for state 2p

SPLIT: PAO cut-off radius determined from an
SPLIT: energy shift=  0.001470 Ry

   izeta = 1
                 lambda =    1.000000
                     rc =    5.587338
                 energy =   -0.663083
                kinetic =    4.459227
    potential(screened) =   -5.122310
       potential(ionic) =  -12.672002

   izeta = 2
                 rmatch =    2.705925
              splitnorm =    0.150000
                 energy =   -0.427537
                kinetic =    6.597078
    potential(screened) =   -7.024615
       potential(ionic) =  -15.479269

POLgen: Perturbative polarization orbital with L=  2

POLgen: Polarization orbital for state 2p

   izeta = 1
                     rc =    5.587338
                 energy =    1.941583
                kinetic =    3.946309
    potential(screened) =   -2.004726
       potential(ionic) =   -7.841617
atom: Total number of Sankey-type orbitals: 13

atm_pop: Valence configuration (for local Pseudopot. screening):
 2s( 2.00)                                                            
 2p( 4.00)                                                            
Vna: chval, zval:    6.00000   6.00000

Vna:  Cut-off radius for the neutral-atom potential:   5.587338
comcore: Pseudo-core radius Rcore=  1.377587

atom: _________________________________________________________________________

<basis_specs>
===============================================================================
H_pbe                Z=   1    Mass=  1.0100        Charge= 0.17977+309
Lmxo=0 Lmxkb= 2    BasisType=split      Semic=F
L=0  Nsemic=0  Cnfigmx=1
          n=1  nzeta=2  polorb=1
            splnorm:   0.15000    
               vcte:    0.0000    
               rinn:    0.0000    
               qcoe:    0.0000    
               qyuk:    0.0000    
               qwid:   0.10000E-01
                rcs:    0.0000      0.0000    
            lambdas:    1.0000      1.0000    
-------------------------------------------------------------------------------
L=0  Nkbl=1  erefs: 0.17977+309
L=1  Nkbl=1  erefs: 0.17977+309
L=2  Nkbl=1  erefs: 0.17977+309
===============================================================================
</basis_specs>

atom: Called for H_pbe                 (Z =   1)

read_vps: Pseudopotential generation method:
read_vps: ATM3      Troullier-Martins                       
Total valence charge:    1.00000

xc_check: Exchange-correlation functional:
xc_check: GGA Perdew, Burke & Ernzerhof 1996
V l=0 = -2*Zval/r beyond r=  1.2977
V l=1 = -2*Zval/r beyond r=  1.2815
V l=2 = -2*Zval/r beyond r=  1.2656
All V_l potentials equal beyond r=  1.2977
This should be close to max(r_c) in ps generation
All pots = -2*Zval/r beyond r=  1.2977

VLOCAL1: 99.0% of the norm of Vloc inside     25.776 Ry
VLOCAL1: 99.9% of the norm of Vloc inside     58.745 Ry
atom: Maximum radius for 4*pi*r*r*local-pseudopot. charge    1.52711
atom: Maximum radius for r*vlocal+2*Zval:    1.28155

KBgen: Kleinman-Bylander projectors: 
GHOST: No ghost state for L =  0
   l= 0   rc=  1.434438   el= -0.477200   Ekb= -1.957043   kbcos= -0.361614
GHOST: No ghost state for L =  1
   l= 1   rc=  1.508111   el=  0.001076   Ekb= -0.424224   kbcos= -0.025441
GHOST: No ghost state for L =  2
   l= 2   rc=  1.527112   el=  0.002010   Ekb= -0.378578   kbcos= -0.002010

KBgen: Total number of  Kleinman-Bylander projectors:    9
atom: -------------------------------------------------------------------------

atom: SANKEY-TYPE ORBITALS:
atom: Selected multiple-zeta basis: split     

SPLIT: Orbitals with angular momentum L= 0

SPLIT: Basis orbitals for state 1s

SPLIT: PAO cut-off radius determined from an
SPLIT: energy shift=  0.001470 Ry

   izeta = 1
                 lambda =    1.000000
                     rc =    6.683416
                 energy =   -0.475696
                kinetic =    0.876299
    potential(screened) =   -1.351995
       potential(ionic) =   -1.870790

   izeta = 2
                 rmatch =    4.103729
              splitnorm =    0.150000
                 energy =   -0.382939
                kinetic =    1.427246
    potential(screened) =   -1.810185
       potential(ionic) =   -2.357019

POLgen: Perturbative polarization orbital with L=  1

POLgen: Polarization orbital for state 1s

   izeta = 1
                     rc =    6.683416
                 energy =    0.527841
                kinetic =    1.123420
    potential(screened) =   -0.595578
       potential(ionic) =   -1.059755
atom: Total number of Sankey-type orbitals:  5

atm_pop: Valence configuration (for local Pseudopot. screening):
 1s( 1.00)                                                            
Vna: chval, zval:    1.00000   1.00000

Vna:  Cut-off radius for the neutral-atom potential:   6.683416

atom: _________________________________________________________________________

<basis_specs>
===============================================================================
C_pbe                Z=   6    Mass=  12.010        Charge= 0.17977+309
Lmxo=1 Lmxkb= 3    BasisType=split      Semic=F
L=0  Nsemic=0  Cnfigmx=2
          n=1  nzeta=2  polorb=0
            splnorm:   0.15000    
               vcte:    0.0000    
               rinn:    0.0000    
               qcoe:    0.0000    
               qyuk:    0.0000    
               qwid:   0.10000E-01
                rcs:    0.0000      0.0000    
            lambdas:    1.0000      1.0000    
L=1  Nsemic=0  Cnfigmx=2
          n=1  nzeta=2  polorb=1
            splnorm:   0.15000    
               vcte:    0.0000    
               rinn:    0.0000    
               qcoe:    0.0000    
               qyuk:    0.0000    
               qwid:   0.10000E-01
                rcs:    0.0000      0.0000    
            lambdas:    1.0000      1.0000    
-------------------------------------------------------------------------------
L=0  Nkbl=1  erefs: 0.17977+309
L=1  Nkbl=1  erefs: 0.17977+309
L=2  Nkbl=1  erefs: 0.17977+309
L=3  Nkbl=1  erefs: 0.17977+309
===============================================================================
</basis_specs>

atom: Called for C_pbe                 (Z =   6)

read_vps: Pseudopotential generation method:
read_vps: ATM3      Troullier-Martins                       
Total valence charge:    4.00000

read_vps: Pseudopotential includes a core correction:
read_vps: Pseudo-core for xc-correction

xc_check: Exchange-correlation functional:
xc_check: GGA Perdew, Burke & Ernzerhof 1996
V l=0 = -2*Zval/r beyond r=  1.5227
V l=1 = -2*Zval/r beyond r=  1.5227
V l=2 = -2*Zval/r beyond r=  1.5227
V l=3 = -2*Zval/r beyond r=  1.5038
All V_l potentials equal beyond r=  1.5227
This should be close to max(r_c) in ps generation
All pots = -2*Zval/r beyond r=  1.5227

VLOCAL1: 99.0% of the norm of Vloc inside     18.722 Ry
VLOCAL1: 99.9% of the norm of Vloc inside     42.668 Ry
atom: Maximum radius for 4*pi*r*r*local-pseudopot. charge    1.83678
atom: Maximum radius for r*vlocal+2*Zval:    1.58088

KBgen: Kleinman-Bylander projectors: 
GHOST: No ghost state for L =  0
   l= 0   rc=  1.704034   el= -1.009801   Ekb=  5.335044   kbcos=  0.316824
GHOST: No ghost state for L =  1
   l= 1   rc=  1.704034   el= -0.388707   Ekb= -3.785862   kbcos= -0.366464
GHOST: No ghost state for L =  2
   l= 2   rc=  1.791422   el=  0.001971   Ekb= -0.970471   kbcos= -0.009212
GHOST: No ghost state for L =  3
   l= 3   rc=  1.859892   el=  0.003065   Ekb= -0.399525   kbcos= -0.001223

KBgen: Total number of  Kleinman-Bylander projectors:   16
atom: -------------------------------------------------------------------------

atom: SANKEY-TYPE ORBITALS:
atom: Selected multiple-zeta basis: split     

SPLIT: Orbitals with angular momentum L= 0

SPLIT: Basis orbitals for state 2s

SPLIT: PAO cut-off radius determined from an
SPLIT: energy shift=  0.001470 Ry

   izeta = 1
                 lambda =    1.000000
                     rc =    5.518829
                 energy =   -1.008405
                kinetic =    0.826670
    potential(screened) =   -1.835076
       potential(ionic) =   -5.372733

   izeta = 2
                 rmatch =    3.475094
              splitnorm =    0.150000
                 energy =   -0.877001
                kinetic =    1.279806
    potential(screened) =   -2.156806
       potential(ionic) =   -5.943593

SPLIT: Orbitals with angular momentum L= 1

SPLIT: Basis orbitals for state 2p

SPLIT: PAO cut-off radius determined from an
SPLIT: energy shift=  0.001470 Ry

   izeta = 1
                 lambda =    1.000000
                     rc =    7.086434
                 energy =   -0.387406
                kinetic =    2.315958
    potential(screened) =   -2.703364
       potential(ionic) =   -6.082967

   izeta = 2
                 rmatch =    3.792903
              splitnorm =    0.150000
                 energy =   -0.270632
                kinetic =    3.420962
    potential(screened) =   -3.691594
       potential(ionic) =   -7.452990

POLgen: Perturbative polarization orbital with L=  2

POLgen: Polarization orbital for state 2p

   izeta = 1
                     rc =    7.086434
                 energy =    0.950541
                kinetic =    2.011745
    potential(screened) =   -1.061204
       potential(ionic) =   -3.737005
atom: Total number of Sankey-type orbitals: 13

atm_pop: Valence configuration (for local Pseudopot. screening):
 2s( 2.00)                                                            
 2p( 2.00)                                                            
Vna: chval, zval:    4.00000   4.00000

Vna:  Cut-off radius for the neutral-atom potential:   7.086434
comcore: Pseudo-core radius Rcore=  1.791422

atom: _________________________________________________________________________

<basis_specs>
===============================================================================
N_pbe                Z=   7    Mass=  14.010        Charge= 0.17977+309
Lmxo=1 Lmxkb= 3    BasisType=split      Semic=F
L=0  Nsemic=0  Cnfigmx=2
          n=1  nzeta=2  polorb=0
            splnorm:   0.15000    
               vcte:    0.0000    
               rinn:    0.0000    
               qcoe:    0.0000    
               qyuk:    0.0000    
               qwid:   0.10000E-01
                rcs:    0.0000      0.0000    
            lambdas:    1.0000      1.0000    
L=1  Nsemic=0  Cnfigmx=2
          n=1  nzeta=2  polorb=1
            splnorm:   0.15000    
               vcte:    0.0000    
               rinn:    0.0000    
               qcoe:    0.0000    
               qyuk:    0.0000    
               qwid:   0.10000E-01
                rcs:    0.0000      0.0000    
            lambdas:    1.0000      1.0000    
-------------------------------------------------------------------------------
L=0  Nkbl=1  erefs: 0.17977+309
L=1  Nkbl=1  erefs: 0.17977+309
L=2  Nkbl=1  erefs: 0.17977+309
L=3  Nkbl=1  erefs: 0.17977+309
===============================================================================
</basis_specs>

atom: Called for N_pbe                 (Z =   7)

read_vps: Pseudopotential generation method:
read_vps: ATM3      Troullier-Martins                       
Total valence charge:    5.00000

read_vps: Pseudopotential includes a core correction:
read_vps: Pseudo-core for xc-correction

xc_check: Exchange-correlation functional:
xc_check: GGA Perdew, Burke & Ernzerhof 1996
V l=0 = -2*Zval/r beyond r=  1.4606
V l=1 = -2*Zval/r beyond r=  1.4606
V l=2 = -2*Zval/r beyond r=  1.4606
V l=3 = -2*Zval/r beyond r=  1.4606
All V_l potentials equal beyond r=  1.4606
This should be close to max(r_c) in ps generation
All pots = -2*Zval/r beyond r=  1.4606

VLOCAL1: 99.0% of the norm of Vloc inside     20.347 Ry
VLOCAL1: 99.9% of the norm of Vloc inside     46.372 Ry
atom: Maximum radius for 4*pi*r*r*local-pseudopot. charge    1.76189
atom: Maximum radius for r*vlocal+2*Zval:    1.53550

KBgen: Kleinman-Bylander projectors: 
GHOST: No ghost state for L =  0
   l= 0   rc=  1.634559   el= -1.363963   Ekb=  5.296955   kbcos=  0.335621
GHOST: No ghost state for L =  1
   l= 1   rc=  1.614250   el= -0.521451   Ekb= -5.259161   kbcos= -0.433408
GHOST: No ghost state for L =  2
   l= 2   rc=  1.718383   el=  0.001991   Ekb= -1.271464   kbcos= -0.007566
GHOST: No ghost state for L =  3
   l= 3   rc=  1.761893   el=  0.003093   Ekb= -0.494769   kbcos= -0.001015

KBgen: Total number of  Kleinman-Bylander projectors:   16
atom: -------------------------------------------------------------------------

atom: SANKEY-TYPE ORBITALS:
atom: Selected multiple-zeta basis: split     

SPLIT: Orbitals with angular momentum L= 0

SPLIT: Basis orbitals for state 2s

SPLIT: PAO cut-off radius determined from an
SPLIT: energy shift=  0.001470 Ry

   izeta = 1
                 lambda =    1.000000
                     rc =    4.850185
                 energy =   -1.362653
                kinetic =    1.145618
    potential(screened) =   -2.508271
       potential(ionic) =   -8.004375

   izeta = 2
                 rmatch =    2.941647
              splitnorm =    0.150000
                 energy =   -1.183977
                kinetic =    1.760294
    potential(screened) =   -2.944271
       potential(ionic) =   -8.850578

SPLIT: Orbitals with angular momentum L= 1

SPLIT: Basis orbitals for state 2p

SPLIT: PAO cut-off radius determined from an
SPLIT: energy shift=  0.001470 Ry

   izeta = 1
                 lambda =    1.000000
                     rc =    6.227861
                 energy =   -0.520224
                kinetic =    3.347848
    potential(screened) =   -3.868073
       potential(ionic) =   -9.141140

   izeta = 2
                 rmatch =    3.170782
              splitnorm =    0.150000
                 energy =   -0.349272
                kinetic =    4.953650
    potential(screened) =   -5.302921
       potential(ionic) =  -11.196930

POLgen: Perturbative polarization orbital with L=  2

POLgen: Polarization orbital for state 2p

   izeta = 1
                     rc =    6.227861
                 energy =    1.406107
                kinetic =    2.897391
    potential(screened) =   -1.491284
       potential(ionic) =   -5.598140
atom: Total number of Sankey-type orbitals: 13

atm_pop: Valence configuration (for local Pseudopot. screening):
 2s( 2.00)                                                            
 2p( 3.00)                                                            
Vna: chval, zval:    5.00000   5.00000

Vna:  Cut-off radius for the neutral-atom potential:   6.227861
comcore: Pseudo-core radius Rcore=  1.554824

atom: _________________________________________________________________________

prinput: Basis input ----------------------------------------------------------

PAO.BasisType split     

%block ChemicalSpeciesLabel
    1    8 O_pbe                   # Species index, atomic number, species label
    2    1 H_pbe                   # Species index, atomic number, species label
    3    6 C_pbe                   # Species index, atomic number, species label
    4    7 N_pbe                   # Species index, atomic number, species label
%endblock ChemicalSpeciesLabel

%block PAO.Basis                 # Define Basis set
O_pbe                 2                    # Species label, number of l-shells
 n=2   0   2                         # n, l, Nzeta 
   4.351      2.542   
   1.000      1.000   
 n=2   1   2 P   1                   # n, l, Nzeta, Polarization, NzetaPol
   5.587      2.706   
   1.000      1.000   
H_pbe                 1                    # Species label, number of l-shells
 n=1   0   2 P   1                   # n, l, Nzeta, Polarization, NzetaPol
   6.683      4.104   
   1.000      1.000   
C_pbe                 2                    # Species label, number of l-shells
 n=2   0   2                         # n, l, Nzeta 
   5.519      3.475   
   1.000      1.000   
 n=2   1   2 P   1                   # n, l, Nzeta, Polarization, NzetaPol
   7.086      3.793   
   1.000      1.000   
N_pbe                 2                    # Species label, number of l-shells
 n=2   0   2                         # n, l, Nzeta 
   4.850      2.942   
   1.000      1.000   
 n=2   1   2 P   1                   # n, l, Nzeta, Polarization, NzetaPol
   6.228      3.171   
   1.000      1.000   
%endblock PAO.Basis

prinput: ----------------------------------------------------------------------

Dumping basis to NetCDF file O_pbe.ion.nc
Dumping basis to NetCDF file H_pbe.ion.nc
Dumping basis to NetCDF file C_pbe.ion.nc
Dumping basis to NetCDF file N_pbe.ion.nc
coor:   Atomic-coordinates input format  =     Cartesian coordinates
coor:                                          (in Angstroms)

siesta: Atomic coordinates (Bohr) and species
siesta:     16.70426  21.08277  22.63441  1        1
siesta:     19.78314  20.09609  14.40880  1        2
siesta:     18.81830  16.07022  23.46102  2        3
siesta:     17.65046  22.39366  18.20578  2        4
siesta:     21.10924  16.02452  15.68161  2        5
siesta:     20.96644  14.04981  19.89010  2        6
siesta:     18.92807  17.11364  21.53297  3        7
siesta:     17.91118  19.72485  21.09848  3        8
siesta:     19.49890  19.33553  16.57266  3        9
siesta:     19.98994  15.84902  19.67808  3       10
siesta:     18.23968  20.64778  18.48683  4       11
siesta:     20.20157  16.84619  17.22341  4       12

siesta: System type = molecule  

initatomlists: Number of atoms, orbitals, and projectors:     12   124   164

coxmol: Writing XMOL coordinates into file wfc.xyz                                                             

siesta: ******************** Simulation parameters ****************************
siesta:
siesta: The following are some of the parameters of the simulation.
siesta: A complete list of the parameters used, including default values,
siesta: can be found in file out.fdf
siesta:
redata: Spin configuration                          = none
redata: Number of spin components                   = 1
redata: Time-Reversal Symmetry                      = T
redata: Spin-spiral                                 = F
redata: Long output                                 =   F
redata: Number of Atomic Species                    =        4
redata: Charge density info will appear in .RHO file
redata: Write Mulliken Pop.                         = NO
redata: Matel table size (NRTAB)                    =     1024
redata: Mesh Cutoff                                 =    50.0000 Ry
redata: Net charge of the system                    =     0.0000 |e|
redata: Min. number of SCF Iter                     =        0
redata: Max. number of SCF Iter                     =     1000
redata: SCF convergence failure will abort job
redata: SCF mix quantity                            = Hamiltonian
redata: Mix DM or H after convergence               =   F
redata: Recompute H after scf cycle                 =   F
redata: Mix DM in first SCF step                    =   T
redata: Write Pulay info on disk                    =   F
redata: New DM Mixing Weight                        =     0.2000
redata: New DM Occupancy tolerance                  = 0.000000000001
redata: No kicks to SCF
redata: DM Mixing Weight for Kicks                  =     0.5000
redata: Require Harris convergence for SCF          =   F
redata: Harris energy tolerance for SCF             =     0.000100 eV
redata: Require DM convergence for SCF              =   T
redata: DM tolerance for SCF                        =     0.000100
redata: Require EDM convergence for SCF             =   F
redata: EDM tolerance for SCF                       =     0.001000 eV
redata: Require H convergence for SCF               =   T
redata: Hamiltonian tolerance for SCF               =     0.001000 eV
redata: Require (free) Energy convergence for SCF   =   F
redata: (free) Energy tolerance for SCF             =     0.000100 eV
redata: Using Saved Data (generic)                  =   F
redata: Use continuation files for DM               =   F
redata: Neglect nonoverlap interactions             =   F
redata: Method of Calculation                       = Diagonalization
redata: Electronic Temperature                      =    58.0222 K
redata: Fix the spin of the system                  =   F
redata: Max. number of TDED Iter                    =        1
redata: Number of TDED substeps                     =        3
redata: Dynamics option                             = Single-point calculation
mix.SCF: Pulay mixing                            = Pulay
mix.SCF:    Variant                              = stable
mix.SCF:    History steps                        = 3
mix.SCF:    Linear mixing weight                 =     0.200000
mix.SCF:    Mixing weight                        =     0.200000
mix.SCF:    SVD condition                        = 0.1000E-07
redata: Save all siesta data in one NC              =   F
redata: ***********************************************************************

%block SCF.Mixers
  Pulay
%endblock SCF.Mixers

%block SCF.Mixer.Pulay
  # Mixing method
  method pulay
  variant stable

  # Mixing options
  weight 0.2000
  weight.linear 0.2000
  history 3
%endblock SCF.Mixer.Pulay

DM_history_depth set to one: no extrapolation allowed by default for geometry relaxation
Size of DM history Fstack: 1
Total number of electrons:    42.000000
Total ionic charge:    42.000000

* ProcessorY, Blocksize:    4   8


* Orbital distribution balance (max,min):     8     4


siesta: k-grid: Number of k-points =         1
siesta: k-point is Gamma-only

diag: Algorithm                                     = D&C
diag: Parallel over k                               =   F
diag: Use parallel 2D distribution                  =   T
diag: Parallel block-size                           = 8
diag: Parallel distribution                         =     4 x     4
diag: Used triangular part                          = Lower
diag: Absolute tolerance                            =  0.100E-15
diag: Orthogonalization factor                      =  0.100E-05
diag: Memory factor                                 =  1.0000


ts: **************************************************************
ts: Save H and S matrices                           =    F
ts: Save DM and EDM matrices                        =    F
ts: Fix Hartree potential                           =    F
ts: Only save the overlap matrix S                  =    F
ts: **************************************************************

************************ Begin: TS CHECKS AND WARNINGS ************************
************************ End: TS CHECKS AND WARNINGS **************************


                     ====================================
                        Single-point calculation
                     ====================================

outcell: Unit cell vectors (Ang):
       20.000000    0.000000    0.000000
        0.000000   20.000000    0.000000
        0.000000    0.000000   20.000000

outcell: Cell vector modules (Ang)   :   20.000000   20.000000   20.000000
outcell: Cell angles (23,13,12) (deg):     90.0000     90.0000     90.0000
outcell: Cell volume (Ang**3)        :   8000.0000
<dSpData1D:S at geom step 0
  <sparsity:sparsity for geom step 0
    nrows_g=124 nrows=8 sparsity=.0631 nnzs=970, refcount: 7>
  <dData1D:(new from dSpData1D) n=970, refcount: 1>
refcount: 1>
new_DM -- step:     1
Initializing Density Matrix...
DM filled with atomic data:
<dSpData2D:DM initialized from atoms
  <sparsity:sparsity for geom step 0
    nrows_g=124 nrows=8 sparsity=.0631 nnzs=970, refcount: 8>
  <dData2D:DM n=970 m=1, refcount: 1>
refcount: 1>
No. of atoms with KB's overlaping orbs in proc 0. Max # of overlaps:       8     118
New grid distribution:   1
           1       1:   45    1:   12    1:   12
           2       1:   45    1:   12   13:   23
           3       1:   45    1:   12   24:   34
           4       1:   45    1:   12   35:   45
           5       1:   45   13:   23    1:   12
           6       1:   45   13:   23   13:   23
           7       1:   45   13:   23   24:   34
           8       1:   45   13:   23   35:   45
           9       1:   45   24:   34    1:   12
          10       1:   45   24:   34   13:   23
          11       1:   45   24:   34   24:   34
          12       1:   45   24:   34   35:   45
          13       1:   45   35:   45    1:   12
          14       1:   45   35:   45   13:   23
          15       1:   45   35:   45   24:   34
          16       1:   45   35:   45   35:   45

InitMesh: MESH =    90 x    90 x    90 =      729000
InitMesh: (bp) =    45 x    45 x    45 =       91125
InitMesh: Mesh cutoff (required, used) =    50.000    55.966 Ry
ExtMesh (bp) on 0 =    81 x    48 x    48 =      186624
New grid distribution:   2
           1       1:   23    1:   22    1:   20
           2       1:   23    1:   22   21:   23
           3       1:   23    1:   22   24:   26
           4       1:   23    1:   22   27:   45
           5      24:   45    1:   22    1:   20
           6       1:   23   23:   45   21:   23
           7      24:   45    1:   22   21:   23
           8      23:   45   23:   45   27:   45
           9       1:   23   23:   45    1:   20
          10      24:   45   23:   45   21:   23
          11      23:   45   23:   45   24:   26
          12       1:   22   23:   45   27:   45
          13      24:   45   23:   45    1:   20
          14      24:   45    1:   22   27:   45
          15       1:   22   23:   45   24:   26
          16      24:   45    1:   22   24:   26
New grid distribution:   3
           1       1:   25    1:   22    1:   18
           2       1:   25    1:   22   19:   23
           3      25:   45    1:   21   24:   27
           4       1:   24    1:   21   29:   45
           5      24:   45   23:   45    1:   18
           6      26:   45    1:   22   19:   23
           7       1:   24    1:   21   24:   28
           8      25:   45    1:   21   28:   45
           9       1:   23   23:   45    1:   19
          10       1:   23   23:   45   20:   23
          11       1:   22   22:   45   24:   28
          12       1:   22   22:   45   29:   45
          13      26:   45    1:   22    1:   18
          14      24:   45   23:   45   19:   23
          15      23:   45   22:   45   24:   27
          16      23:   45   22:   45   28:   45
Setting up quadratic distribution...
ExtMesh (bp) on 0 =    59 x    58 x    56 =      191632
PhiOnMesh: Number of (b)points on node 0 =                10120
PhiOnMesh: nlist on node 0 =                10576

bigdft_solver: initialising kernel for a molecular system
#================= WARNING bigdft_solver ===============#
                                                         
 Molecular system must be place at the center of the box,
 otherwise box-edge effects might lead to wrong Hartree  
 energy values.                                          

#=======================================================#

bigdft_solver: Poisson solver variables
Solver boundary condition: F
verbosity: F
cavity type:   T
isf_order: 16
fd_order: 16

stepf: Fermi-Dirac step function

siesta: Program's energy decomposition (eV):
siesta: Ebs     =      -495.032622
siesta: Eions   =      3139.365752
siesta: Ena     =       513.254605
siesta: Ekin    =      1552.653654
siesta: Enl     =      -358.364306
siesta: Eso     =         0.000000
siesta: Eldau   =         0.000000
siesta: DEna    =       -86.924801
siesta: DUscf   =        15.045279
siesta: DUext   =         0.000000
siesta: Enegf   =         0.000000
siesta: Exc     =      -661.364997
siesta: eta*DQ  =         0.000000
siesta: Emadel  =         0.000000
siesta: Emeta   =         0.000000
siesta: Emolmec =         0.000000
siesta: Ekinion =         0.000000
siesta: Eharris =     -2147.909431
siesta: Etot    =     -2165.066318
siesta: FreeEng =     -2165.066318

        iscf     Eharris(eV)        E_KS(eV)     FreeEng(eV)     dDmax    Ef(eV) dHmax(eV)
   scf:    1    -2147.909431    -2165.066318    -2165.066318  1.936069 -6.446381 10.609531
timer: Routine,Calls,Time,% = IterSCF        1       0.502   1.48
   scf:    2    -2172.858481    -2169.603216    -2169.603216  0.082093 -5.289588  5.047575
   scf:    3    -2171.265438    -2170.864735    -2170.864735  0.090546 -3.848131  1.365911
   scf:    4    -2170.969820    -2170.954086    -2170.954086  0.037661 -3.445417  0.447036
   scf:    5    -2170.973297    -2170.965397    -2170.965397  0.006788 -3.403274  0.267183
   scf:    6    -2170.978089    -2170.972550    -2170.972550  0.009426 -3.330236  0.117098
   scf:    7    -2170.974885    -2170.973870    -2170.973870  0.004648 -3.307400  0.048386
   scf:    8    -2170.974351    -2170.974138    -2170.974138  0.002421 -3.300121  0.018323
   scf:    9    -2170.974208    -2170.974174    -2170.974174  0.000543 -3.298505  0.014009
   scf:   10    -2170.974231    -2170.974207    -2170.974207  0.001034 -3.294753  0.007954
   scf:   11    -2170.974210    -2170.974209    -2170.974209  0.000285 -3.292949  0.005869
   scf:   12    -2170.974211    -2170.974210    -2170.974210  0.000284 -3.290869  0.004447
   scf:   13    -2170.974212    -2170.974211    -2170.974211  0.000142 -3.289797  0.002539
   scf:   14    -2170.974212    -2170.974211    -2170.974211  0.000062 -3.289378  0.001144
   scf:   15    -2170.974211    -2170.974211    -2170.974211  0.000039 -3.289308  0.000413

SCF Convergence by DM+H criterion
max |DM_out - DM_in|         :     0.0000393489
max |H_out - H_in|      (eV) :     0.0004133546
SCF cycle converged after 15 iterations

Using DM_out to compute the final energy and forces
No. of atoms with KB's overlaping orbs in proc 0. Max # of overlaps:       8     118

siesta: E_KS(eV) =            -2170.9742

siesta: E_KS - E_eggbox =     -2170.9742

siesta: Atomic forces (eV/Ang):
----------------------------------------
   Tot    8.110974  -22.158952  -22.597931
----------------------------------------
   Max   39.991758
   Res   13.286483    sqrt( Sum f_i^2 / 3N )
----------------------------------------
   Max   39.991758    constrained

Stress-tensor-Voigt (kbar):       -2.68       -3.64       -2.74       -0.18       -0.64        0.29
(Free)E + p*V (eV/cell)    -2155.9080
Target enthalpy (eV/cell)    -2170.9742

coxmol: Writing XMOL coordinates into file wfc.xyz                                                             

siesta: Program's energy decomposition (eV):
siesta: Ebs     =      -594.948346
siesta: Eions   =      3139.365752
siesta: Ena     =       513.254605
siesta: Ekin    =      1456.497879
siesta: Enl     =      -322.837194
siesta: Eso     =         0.000000
siesta: Eldau   =         0.000000
siesta: DEna    =       -41.056581
siesta: DUscf   =         4.867682
siesta: DUext   =         0.000000
siesta: Enegf   =         0.000000
siesta: Exc     =      -642.334850
siesta: eta*DQ  =         0.000000
siesta: Emadel  =         0.000000
siesta: Emeta   =         0.000000
siesta: Emolmec =         0.000000
siesta: Ekinion =         0.000000
siesta: Eharris =     -2170.974211
siesta: Etot    =     -2170.974211
siesta: FreeEng =     -2170.974211

siesta: Final energy (eV):
siesta:  Band Struct. =    -594.948346
siesta:       Kinetic =    1456.497879
siesta:       Hartree =    6604.306356
siesta:       Eldau   =       0.000000
siesta:       Eso     =       0.000000
siesta:    Ext. field =       0.000000
siesta:       Enegf   =       0.000000
siesta:   Exch.-corr. =    -642.334850
siesta:  Ion-electron =  -14531.876504
siesta:       Ion-ion =    4942.432907
siesta:       Ekinion =       0.000000
siesta:         Total =   -2170.974211
siesta:         Fermi =      -3.289308

siesta: Atomic forces (eV/Ang):
siesta:      1   39.991758  -37.538872   19.358788
siesta:      2  -20.947885   26.976234  -39.374405
siesta:      3   -0.107126    1.277545   -1.245351
siesta:      4   -0.526371    1.697651   -0.488554
siesta:      5   -0.221408   -0.116767    0.881142
siesta:      6   -0.006184   -0.716318    0.213080
siesta:      7   -2.155342    2.793492    2.029988
siesta:      8    0.173835    0.958323   -1.750994
siesta:      9   -1.437048   -0.939958    0.032855
siesta:     10    2.692452    0.902073   -2.413517
siesta:     11   -3.101101  -10.644896    0.874912
siesta:     12   -6.244606   -6.807459   -0.715876
siesta: ----------------------------------------
siesta:    Tot    8.110974  -22.158952  -22.597931

siesta: Stress tensor (static) (eV/Ang**3):
siesta:    -0.001671   -0.000114    0.000183
siesta:    -0.000114   -0.002271   -0.000399
siesta:     0.000183   -0.000399   -0.001708

siesta: Cell volume =       8000.000000 Ang**3

siesta: Pressure (static):
siesta:                Solid            Molecule  Units
siesta:           0.00002051          0.00000525  Ry/Bohr**3
siesta:           0.00188328          0.00048239  eV/Ang**3
siesta:           3.01737756          0.77288602  kBar
(Free)E+ p_basis*V_orbitals  =       -2164.144739
(Free)Eharris+ p_basis*V_orbitals  =       -2164.144739

siesta: Electric dipole (a.u.)  =    0.727665   -1.350205   -0.037090
siesta: Electric dipole (Debye) =    1.849541   -3.431881   -0.094273

>> End of run:  24-FEB-2020  12:47:04
Job completed
