Siesta Version  : Linres_parallel652--trunk680
Architecture    : unknown
Compiler version: GNU Fortran (Ubuntu 4.8.4-2ubuntu1~14.04.3) 4.8.4
Compiler flags  : gfortran -O2 -fPIC -ftree-vectorize
PP flags        : -fbounds-check -g -fcheck=all -DFC_HAVE_FLUSH -DFC_HAVE_ABORT -fbacktrace -DL1 -DSIESTA__DIAG_2STAGE
Libraries       : libsiestaLAPACK.a libsiestaBLAS.a libsiestaLAPACK.a libsiestaBLAS.a -L/home/llikewise-open/ICN/sillera/Desktop/1/LinresLibxc/libxc-2.2.3/INSTAL/lib -l xcf90 -l xc
SERIAL version

* Running in serial mode
>> Start of run:  25-JUN-2018  12:57:59

                           ***********************       
                           *  WELCOME TO SIESTA  *       
                           ***********************       

reinit: Reading from standard input
reinit: Dumped input in INPUT_TMP.07748
************************** Dump of input data file ****************************
SystemName           C60
SystemLabel          c60linres
NumberOfSpecies 1
%block chemicalspecieslabel
1  6 C 12.0107
%endblock chemicalspecieslabel
PAO.BasisSize SZ
MeshCutoff 130.0 Ry
DM.MixingWeight  0.2
DM.NumberPulay    3
DM.Tolerance     1.0d-4
NumberOfAtoms        60
LatticeConstant     1 Ang
%block LatticeVectors
   13.241400    0.000000    0.000000
    0.000000   13.591481    0.000000
    0.000000    0.000000   13.699090
%endblock LatticeVectors
%block AtomicCoordinatesAndAtomicSpecies
    2.29304783    0.62476973    2.76325237   1       1  C
    3.22716944    0.18679531    1.68355298   1       2  C
    1.38381814   -0.31987918    3.35285120   1       3  C
    3.21744325   -1.17913486    1.23362475   1       4  C
    3.31873967   -1.48618867   -0.22396072   1       5  C
    3.34017761    1.29808799    0.69262428   1       6  C
    3.43766032    1.00176951   -0.71098240   1       7  C
    3.42645592   -0.41620040   -1.17800311   1       8  C
   -0.47192776    1.41130192    3.33135793   1       9  C
    0.47259344    2.39243206    2.71955731   1      10  C
   -0.02483378    0.08051424    3.64259442   1      11  C
    1.82952067    2.00713154    2.44067372   1      12  C
    2.47634868    2.42323565    1.16078093   1      13  C
   -0.28984127    3.20982307    1.72983520   1      14  C
    0.33240755    3.61056408    0.49688809   1      15  C
    1.74160279    3.20946931    0.20725014   1      16  C
   -2.20249006   -0.88741363    2.76809845   1      17  C
   -2.66724459    0.49479535    2.44505362   1      18  C
   -0.90550598   -1.09057740    3.35521326   1      19  C
   -1.81840541    1.62210457    2.72115529   1      20  C
   -1.70554662    2.73394502    1.73062765   1      21  C
   -3.43516210    0.43630382    1.16558855   1      22  C
   -3.32707703    1.50677629    0.21155136   1      23  C
   -2.44596061    2.67777412    0.49932528   1      24  C
   -0.50432261   -3.09474231    1.84958463   1      25  C
   -1.84996167   -2.88109723    1.23792772   1      26  C
   -0.04050685   -2.21497623    2.88826716   1      27  C
   -2.68357011   -1.79941495    1.68860499   1      28  C
   -3.44547329   -0.98171086    0.69846710   1      29  C
   -1.74778900   -3.18870308   -0.21970295   1      30  C
   -2.48235753   -2.40189406   -1.17285461   1      31  C
   -3.34672099   -1.27811733   -0.70502683   1      32  C
    2.27369351   -2.16087631    1.84677247   1      33  C
    1.79176518   -3.07460427    0.76777130   1      34  C
    1.37476218   -1.73884467    2.88666701   1      35  C
    0.42907885   -3.53331059    0.76917871   1      36  C
   -0.33943176   -3.59082523   -0.51004576   1      37  C
    2.43761356   -2.65693632   -0.51205769   1      38  C
    1.69880167   -2.71504422   -1.74412253   1      39  C
    0.28312291   -3.19014026   -1.74280378   1      40  C
   -2.30131259   -0.60367489   -2.77553404   1      41  C
   -1.83673343   -1.98610173   -2.45335490   1      42  C
   -0.48001837   -2.37291354   -2.73265655   1      43  C
   -1.39268303    0.34038677   -3.36716830   1      44  C
   -2.28093354    2.18114970   -1.86021042   1      45  C
   -3.22540399    1.20025100   -1.24642898   1      46  C
   -3.23549843   -0.16599105   -1.69569858   1      47  C
   -1.38199980    1.75875268   -2.90009053   1      48  C
    0.49786328    3.11309523   -1.86212016   1      49  C
   -0.43598417    3.55172709   -0.78215647   1      50  C
   -1.79937567    3.09478771   -0.78090573   1      51  C
    0.03364577    2.23375934   -2.90074454   1      52  C
    2.19330810    0.90665879   -2.77990883   1      53  C
    2.67653592    1.81967761   -1.70146210   1      54  C
    1.84372188    2.90191189   -1.25049438   1      55  C
    0.89728578    1.10927550   -3.36838862   1      56  C
    0.46412213   -1.39148782   -3.34483999   1      57  C
    1.81081355   -1.60319769   -2.73487500   1      58  C
    2.65850784   -0.47536544   -2.45737894   1      59  C
    0.01611326   -0.06130969   -3.65662149   1      60  C
%endblock AtomicCoordinatesAndAtomicSpecies
LongOutput            T
AtomCoorFormatOut  Ang
MD.TypeOfRun   LR
MD.FCfirst          1
MD.FClast           1
************************** End of input data file *****************************

reinit: -----------------------------------------------------------------------
reinit: System Name: C60
reinit: -----------------------------------------------------------------------
reinit: System Label: c60linres
reinit: -----------------------------------------------------------------------

initatom: Reading input for the pseudopotentials and atomic orbitals ----------
Species number:   1 Atomic number:    6 Label: C

Ground state valence configuration:   2s02  2p02
Reading pseudopotential information in formatted form from C.psf

Pseudopotential generated from a relativistic atomic calculation

Valence configuration for pseudopotential generation:
2s( 2.00) rc: 1.25
2p( 2.00) rc: 1.25
3d( 0.00) rc: 1.25
4f( 0.00) rc: 1.25
For C, standard SIESTA heuristics set lmxkb to 2
 (one more than the basis l, including polarization orbitals).
Use PS.lmax or PS.KBprojectors blocks to override.

<basis_specs>
===============================================================================
C                    Z=   6    Mass=  12.010        Charge= 0.17977+309
Lmxo=1 Lmxkb= 2    BasisType=split      Semic=F
L=0  Nsemic=0  Cnfigmx=2
          n=1  nzeta=1  polorb=0
            splnorm:   0.15000    
               vcte:    0.0000    
               rinn:    0.0000    
               qcoe:    0.0000    
               qyuk:    0.0000    
               qwid:   0.10000E-01
                rcs:    0.0000    
            lambdas:    1.0000    
L=1  Nsemic=0  Cnfigmx=2
          n=1  nzeta=1  polorb=0
            splnorm:   0.15000    
               vcte:    0.0000    
               rinn:    0.0000    
               qcoe:    0.0000    
               qyuk:    0.0000    
               qwid:   0.10000E-01
                rcs:    0.0000    
            lambdas:    1.0000    
-------------------------------------------------------------------------------
L=0  Nkbl=1  erefs: 0.17977+309
L=1  Nkbl=1  erefs: 0.17977+309
L=2  Nkbl=1  erefs: 0.17977+309
===============================================================================
</basis_specs>

atom: Called for C                     (Z =   6)

read_vps: Pseudopotential generation method:
read_vps: ATM3.3    Troullier-Martins                       
Total valence charge:    4.00000

xc_check: Exchange-correlation functional:
xc_check: Ceperley-Alder
V l=0 = -2*Zval/r beyond r=  1.3951
V l=1 = -2*Zval/r beyond r=  1.3777
V l=2 = -2*Zval/r beyond r=  1.3777
All V_l potentials equal beyond r=  1.2311
This should be close to max(r_c) in ps generation
All pots = -2*Zval/r beyond r=  1.3951

VLOCAL1: 99.0% of the norm of Vloc inside     28.641 Ry
VLOCAL1: 99.9% of the norm of Vloc inside     65.273 Ry
atom: Maximum radius for 4*pi*r*r*local-pseudopot. charge    1.48507
atom: Maximum radius for r*vlocal+2*Zval:    1.27815
GHOST: No ghost state for L =  0
GHOST: No ghost state for L =  1
GHOST: No ghost state for L =  2

KBgen: Kleinman-Bylander projectors: 
   l= 0   rc=  1.620907   el= -1.002385   Ekb=  7.809297   kbcos=  0.280197
   l= 1   rc=  1.641300   el= -0.398436   Ekb= -4.835205   kbcos= -0.287399
   l= 2   rc=  1.906986   el=  0.002326   Ekb= -1.346161   kbcos= -0.005337

KBgen: Total number of  Kleinman-Bylander projectors:    9
atom: -------------------------------------------------------------------------

atom: SANKEY-TYPE ORBITALS:

SPLIT: Orbitals with angular momentum L= 0

SPLIT: Basis orbitals for state 2s

SPLIT: PAO cut-off radius determined from an
SPLIT: energy shift=  0.020000 Ry

   izeta = 1
                 lambda =    1.000000
                     rc =    4.191849
                 energy =   -0.984366
                kinetic =    0.919024
    potential(screened) =   -1.903391
       potential(ionic) =   -5.508461

SPLIT: Orbitals with angular momentum L= 1

SPLIT: Basis orbitals for state 2p

SPLIT: PAO cut-off radius determined from an
SPLIT: energy shift=  0.020000 Ry

   izeta = 1
                 lambda =    1.000000
                     rc =    4.870301
                 energy =   -0.378918
                kinetic =    2.614482
    potential(screened) =   -2.993400
       potential(ionic) =   -6.506971
atom: Total number of Sankey-type orbitals:  4

atm_pop: Valence configuration (for local Pseudopot. screening):
 2s( 2.00)                                                            
 2p( 2.00)                                                            
Vna: chval, zval:    4.00000   4.00000

Vna:  Cut-off radius for the neutral-atom potential:   4.870301

atom: _________________________________________________________________________

prinput: Basis input ----------------------------------------------------------

PAO.BasisType split     

%block ChemicalSpeciesLabel
    1    6 C                       # Species index, atomic number, species label
%endblock ChemicalSpeciesLabel

%block PAO.Basis                 # Define Basis set
C                     2                    # Species label, number of l-shells
 n=2   0   1                         # n, l, Nzeta 
   4.192   
   1.000   
 n=2   1   1                         # n, l, Nzeta 
   4.870   
   1.000   
%endblock PAO.Basis

prinput: ----------------------------------------------------------------------

coor:   Atomic-coordinates input format  =     Cartesian coordinates
coor:                                            (in Bohr units)

siesta: Atomic coordinates (Bohr) and species
siesta:      2.29305   0.62477   2.76325  1        1
siesta:      3.22717   0.18680   1.68355  1        2
siesta:      1.38382  -0.31988   3.35285  1        3
siesta:      3.21744  -1.17913   1.23362  1        4
siesta:      3.31874  -1.48619  -0.22396  1        5
siesta:      3.34018   1.29809   0.69262  1        6
siesta:      3.43766   1.00177  -0.71098  1        7
siesta:      3.42646  -0.41620  -1.17800  1        8
siesta:     -0.47193   1.41130   3.33136  1        9
siesta:      0.47259   2.39243   2.71956  1       10
siesta:     -0.02483   0.08051   3.64259  1       11
siesta:      1.82952   2.00713   2.44067  1       12
siesta:      2.47635   2.42324   1.16078  1       13
siesta:     -0.28984   3.20982   1.72984  1       14
siesta:      0.33241   3.61056   0.49689  1       15
siesta:      1.74160   3.20947   0.20725  1       16
siesta:     -2.20249  -0.88741   2.76810  1       17
siesta:     -2.66724   0.49480   2.44505  1       18
siesta:     -0.90551  -1.09058   3.35521  1       19
siesta:     -1.81841   1.62210   2.72116  1       20
siesta:     -1.70555   2.73395   1.73063  1       21
siesta:     -3.43516   0.43630   1.16559  1       22
siesta:     -3.32708   1.50678   0.21155  1       23
siesta:     -2.44596   2.67777   0.49933  1       24
siesta:     -0.50432  -3.09474   1.84958  1       25
siesta:     -1.84996  -2.88110   1.23793  1       26
siesta:     -0.04051  -2.21498   2.88827  1       27
siesta:     -2.68357  -1.79941   1.68860  1       28
siesta:     -3.44547  -0.98171   0.69847  1       29
siesta:     -1.74779  -3.18870  -0.21970  1       30
siesta:     -2.48236  -2.40189  -1.17285  1       31
siesta:     -3.34672  -1.27812  -0.70503  1       32
siesta:      2.27369  -2.16088   1.84677  1       33
siesta:      1.79177  -3.07460   0.76777  1       34
siesta:      1.37476  -1.73884   2.88667  1       35
siesta:      0.42908  -3.53331   0.76918  1       36
siesta:     -0.33943  -3.59083  -0.51005  1       37
siesta:      2.43761  -2.65694  -0.51206  1       38
siesta:      1.69880  -2.71504  -1.74412  1       39
siesta:      0.28312  -3.19014  -1.74280  1       40
siesta:     -2.30131  -0.60367  -2.77553  1       41
siesta:     -1.83673  -1.98610  -2.45335  1       42
siesta:     -0.48002  -2.37291  -2.73266  1       43
siesta:     -1.39268   0.34039  -3.36717  1       44
siesta:     -2.28093   2.18115  -1.86021  1       45
siesta:     -3.22540   1.20025  -1.24643  1       46
siesta:     -3.23550  -0.16599  -1.69570  1       47
siesta:     -1.38200   1.75875  -2.90009  1       48
siesta:      0.49786   3.11310  -1.86212  1       49
siesta:     -0.43598   3.55173  -0.78216  1       50
siesta:     -1.79938   3.09479  -0.78091  1       51
siesta:      0.03365   2.23376  -2.90074  1       52
siesta:      2.19331   0.90666  -2.77991  1       53
siesta:      2.67654   1.81968  -1.70146  1       54
siesta:      1.84372   2.90191  -1.25049  1       55
siesta:      0.89729   1.10928  -3.36839  1       56
siesta:      0.46412  -1.39149  -3.34484  1       57
siesta:      1.81081  -1.60320  -2.73488  1       58
siesta:      2.65851  -0.47537  -2.45738  1       59
siesta:      0.01611  -0.06131  -3.65662  1       60

siesta: System type = molecule  

initatomlists: Number of atoms, orbitals, and projectors:     60   240   540

siesta: ******************** Simulation parameters ****************************
siesta:
siesta: The following are some of the parameters of the simulation.
siesta: A complete list of the parameters used, including default values,
siesta: can be found in file out.fdf
siesta:
redata: Spin configuration                          = none
redata: Number of spin components                   = 1
redata: Time-Reversal Symmetry                      = T
redata: Spin-spiral                                 = F
redata: Long output                                 =   T
redata: Number of Atomic Species                    =        1
redata: Charge density info will appear in .RHO file
redata: Write Mulliken Pop.                         = Atomic and Orbital charges
redata: Mesh Cutoff                                 =   130.0000 Ry
redata: Net charge of the system                    =     0.0000 |e|
redata: Min. number of SCF Iter                     =        0
redata: Max. number of SCF Iter                     =     1000
redata: SCF convergence failure will abort job
redata: SCF mix quantity                            = Hamiltonian
redata: Mix DM or H after convergence               =   F
redata: Recompute H after scf cycle                 =   F
redata: Mix DM in first SCF step                    =   T
redata: Write Pulay info on disk                    =   F
redata: New DM Mixing Weight                        =     0.2000
redata: New DM Occupancy tolerance                  = 0.000000000001
redata: No kicks to SCF
redata: DM Mixing Weight for Kicks                  =     0.5000
redata: Require Harris convergence for SCF          =   F
redata: Harris energy tolerance for SCF             =     0.000100 eV
redata: Require DM convergence for SCF              =   T
redata: DM tolerance for SCF                        =     0.000100
redata: Require EDM convergence for SCF             =   F
redata: EDM tolerance for SCF                       =     0.001000 eV
redata: Require H convergence for SCF               =   T
redata: Hamiltonian tolerance for SCF               =     0.001000 eV
redata: Require (free) Energy convergence for SCF   =   F
redata: (free) Energy tolerance for SCF             =     0.000100 eV
redata: Using Saved Data (generic)                  =   F
redata: Use continuation files for DM               =   F
redata: Neglect nonoverlap interactions             =   F
redata: Method of Calculation                       = Diagonalization
redata: Electronic Temperature                      =   299.9869 K
redata: Fix the spin of the system                  =   F
redata: Max. number of TDED Iter                    =        1
redata: Number of TDED substeps                     =        3
redata: Dynamics option                             = Single-point calculation
mix.SCF: Pulay mixing                            = Pulay
mix.SCF:    Variant                              = stable
mix.SCF:    History steps                        = 3
mix.SCF:    Linear mixing weight                 =     0.200000
mix.SCF:    Mixing weight                        =     0.200000
mix.SCF:    SVD condition                        = 0.1000E-07
redata: ***********************************************************************

%block SCF.Mixers
  Pulay
%endblock SCF.Mixers

%block SCF.Mixer.Pulay
  # Mixing method
  method pulay
  variant stable

  # Mixing options
  weight 0.2000
  weight.linear 0.2000
  history 3
%endblock SCF.Mixer.Pulay

DM_history_depth set to one: no extrapolation allowed by default for geometry relaxation
Size of DM history Fstack: 1
Total number of electrons:   240.000000
Total ionic charge:   240.000000
 Kpoints in:            1 . Kpoints trimmed:            1

siesta: k-point coordinates (Bohr**-1) and weights:
siesta:    1    0.000000    0.000000    0.000000       1.000000

siesta: k-grid: Number of k-points =     1
siesta: k-grid: Cutoff (effective) =     6.621 Ang
siesta: k-grid: Supercell and displacements
siesta: k-grid:    1   0   0      0.000
siesta: k-grid:    0   1   0      0.000
siesta: k-grid:    0   0   1      0.000

diag: Algorithm                                     = D&C
diag: Used triangular part                          = Lower
diag: Absolute tolerance                            =  0.100E-15
diag: Orthogonalization factor                      =  0.100E-05
diag: Memory factor                                 =  1.0000


ts: **************************************************************
ts: Save H and S matrices                           =    F
ts: Save DM and EDM matrices                        =    F
ts: Fix Hartree potential                           =    F
ts: Only save the overlap matrix S                  =    F
ts: **************************************************************

************************ Begin: TS CHECKS AND WARNINGS ************************
************************ End: TS CHECKS AND WARNINGS **************************


                     ====================================
                        Single-point calculation
                     ====================================

outcoor: Atomic coordinates (Ang):                          
    1.21342817    0.33061377    1.46224960   1       1  C
    1.70774384    0.09884778    0.89089752   1       2  C
    0.73228473   -0.16927270    1.77425174   1       3  C
    1.70259697   -0.62397105    0.65280584   1       4  C
    1.75620070   -0.78645686   -0.11851486   1       5  C
    1.76754517    0.68691831    0.36652084   1       6  C
    1.81913078    0.53011338   -0.37623553   1       7  C
    1.81320166   -0.22024368   -0.62337215   1       8  C
   -0.24973332    0.74682852    1.76287800   1       9  C
    0.25008558    1.26602002    1.43912718   1      10  C
   -0.01314147    0.04260628    1.92757719   1      11  C
    0.96814026    1.06212785    1.29154840   1      12  C
    1.31042677    1.28232057    0.61425857   1      13  C
   -0.15337733    1.69856454    0.91538900   1      14  C
    0.17590243    1.91062747    0.26294175   1      15  C
    0.92161614    1.69837734    0.10967201   1      16  C
   -1.16550708   -0.46959888    1.46481403   1      17  C
   -1.41144449    0.26183432    1.29386614   1      18  C
   -0.47917294   -0.57710848    1.77550169   1      19  C
   -0.96225832    0.85838043    1.43997279   1      20  C
   -0.90253604    1.44674082    0.91580835   1      21  C
   -1.81780877    0.23088195    0.61680265   1      22  C
   -1.76061264    0.79735136    0.11194811   1      23  C
   -1.29434610    1.41701648    0.26423145   1      24  C
   -0.26687593   -1.63766645    0.97875765   1      25  C
   -0.97895717   -1.52461039    0.65508288   1      26  C
   -0.02143529   -1.17211448    1.52840455   1      27  C
   -1.42008358   -0.95220900    0.89357092   1      28  C
   -1.82326522   -0.51949881    0.36961272   1      29  C
   -0.92488974   -1.68738833   -0.11626175   1      30  C
   -1.31360651   -1.27102709   -0.62064768   1      31  C
   -1.77100777   -0.67635029   -0.37308398   1      32  C
    1.20318631   -1.14348604    0.97726952   1      33  C
    0.94816092   -1.62700986    0.40628691   1      34  C
    0.72749253   -0.92015661    1.52755779   1      35  C
    0.22705866   -1.86974670    0.40703168   1      36  C
   -0.17961948   -1.90018212   -0.26990449   1      37  C
    1.28992903   -1.40598959   -0.27096915   1      38  C
    0.89896677   -1.43673896   -0.92294953   1      39  C
    0.14982213   -1.68814885   -0.92225168   1      40  C
   -1.21780169   -0.31945087   -1.46874878   1      41  C
   -0.97195709   -1.05099936   -1.29825899   1      42  C
   -0.25401468   -1.25569127   -1.44605900   1      43  C
   -0.73697583    0.18012485   -1.78182802   1      44  C
   -1.20701757    1.15421425   -0.98438057   1      45  C
   -1.70680961    0.63514522   -0.65958155   1      46  C
   -1.71215135   -0.08783865   -0.89732469   1      47  C
   -0.73132251    0.93069147   -1.53466121   1      48  C
    0.26345780    1.64737839   -0.98539116   1      49  C
   -0.23071280    1.87949229   -0.41389921   1      50  C
   -0.95218822    1.63769048   -0.41323735   1      51  C
    0.01780457    1.18205407   -1.53500729   1      52  C
    1.16064820    0.47978298   -1.47106381   1      53  C
    1.41636125    0.96293154   -0.90037461   1      54  C
    0.97565521    1.53562503   -0.66173286   1      55  C
    0.47482300    0.58700308   -1.78247378   1      56  C
    0.24560276   -0.73634335   -1.77001239   1      57  C
    0.95824088   -0.84837534   -1.44723295   1      58  C
    1.40682120   -0.25155246   -1.30038842   1      59  C
    0.00852677   -0.03244368   -1.93499999   1      60  C

outcell: Unit cell vectors (Ang):
       13.241400    0.000000    0.000000
        0.000000   13.591481    0.000000
        0.000000    0.000000   13.699090

outcell: Cell vector modules (Ang)   :   13.241400   13.591481   13.699090
outcell: Cell angles (23,13,12) (deg):     90.0000     90.0000     90.0000
outcell: Cell volume (Ang**3)        :   2465.4285
<dSpData1D:S at geom step 0
  <sparsity:sparsity for geom step 0
    nrows_g=240 nrows=240 sparsity=1.0000 nnzs=57600, refcount: 7>
  <dData1D:(new from dSpData1D) n=57600, refcount: 1>
refcount: 1>
new_DM -- step:     1
Initializing Density Matrix...
DM filled with atomic data:
<dSpData2D:DM initialized from atoms
  <sparsity:sparsity for geom step 0
    nrows_g=240 nrows=240 sparsity=1.0000 nnzs=57600, refcount: 8>
  <dData2D:DM n=57600 m=1, refcount: 1>
refcount: 1>

No. of atoms with KB's overlaping orbs in proc 0. Max # of overlaps:      60     192
New grid distribution:   1
           1       1:   48    1:   48    1:   48

InitMesh: MESH =    96 x    96 x    96 =      884736
InitMesh: (bp) =    48 x    48 x    48 =      110592
InitMesh: Mesh cutoff (required, used) =   130.000   135.725 Ry
ExtMesh (bp) on 0 =    88 x    88 x    88 =      681472
PhiOnMesh: Number of (b)points on node 0 =               110592
PhiOnMesh: nlist on node 0 =               793872

stepf: Fermi-Dirac step function

siesta: Program's energy decomposition (eV):
siesta: Ebs     =     -7015.829310
siesta: Eions   =     18968.068878
siesta: Ena     =      5982.134232
siesta: Ekin    =     14347.841307
siesta: Enl     =      -517.786828
siesta: Eso     =         0.000000
siesta: Eldau   =         0.000000
siesta: DEna    =     -2564.530902
siesta: DUscf   =       359.522314
siesta: DUext   =         0.000000
siesta: Enegf   =         0.000000
siesta: Exc     =     -4119.018485
siesta: eta*DQ  =         0.000000
siesta: Emadel  =         0.000000
siesta: Emeta   =         0.000000
siesta: Emolmec =         0.000000
siesta: Ekinion =         0.000000
siesta: Eharris =     -3120.132004
siesta: Etot    =     -5479.907241
siesta: FreeEng =     -5479.907241

        iscf     Eharris(eV)        E_KS(eV)     FreeEng(eV)     dDmax    Ef(eV) dHmax(eV)
   scf:    1    -3120.132004    -5479.907241    -5479.907241  1.873604-22.958445 13.283920
timer: Routine,Calls,Time,% = IterSCF        1       5.410  64.42
   scf:    2    -5500.272781    -5490.258939    -5490.258939  0.094668-20.867795  9.833015
   scf:    3    -5514.971839    -5504.093953    -5504.093953  0.342885-16.076291  1.141666
   scf:    4    -5496.997630    -5501.683049    -5501.683049  0.171413-17.176389  3.976619
   scf:    5    -5506.699517    -5504.924642    -5504.924642  0.093769-17.065322  0.077203
   scf:    6    -5504.924060    -5504.924465    -5504.924465  0.001286-17.123738  0.015516
   scf:    7    -5504.924901    -5504.924739    -5504.924739  0.000819-17.157589  0.008921
   scf:    8    -5504.924739    -5504.924739    -5504.924739  0.000057-17.162462  0.003947
   scf:    9    -5504.924742    -5504.924741    -5504.924741  0.000094-17.162946  0.002469
   scf:   10    -5504.924744    -5504.924743    -5504.924743  0.000234-17.163465  0.000719
   scf:   11    -5504.924743    -5504.924743    -5504.924743  0.000007-17.163589  0.000498

SCF Convergence by DM+H criterion
max |DM_out - DM_in|         :     0.0000072289
max |H_out - H_in|      (eV) :     0.0004980264
SCF cycle converged after 11 iterations

Using DM_out to compute the final energy and forces
No. of atoms with KB's overlaping orbs in proc 0. Max # of overlaps:      60     192

                     ====================================
                               Linres calculation
                     ====================================
Linres: Initial perturbed atom      1
  Linres: Final perturbed atom      1
        Linres: Tolerance (DM)   0.00100

                     ====================================
                               Linres atom=      1
                     ====================================
        iscf     dDmax
 lr-scf:   1  2.693775
 lr-scf:   2  2.812130
 lr-scf:   3  0.560074
 lr-scf:   4  0.177021
 lr-scf:   5  0.134553
 lr-scf:   6  0.034888
 lr-scf:   7  0.015992
 lr-scf:   8  0.009102
 lr-scf:   9  0.005099
 lr-scf:  10  0.003372
 lr-scf:  11  0.001197
 lr-scf:  12  0.000721

writedynmat: Saving into a file calculated dynamical matrix
 ----- COMPLETE DYNAMICAL MATRIX -----
 xyz;Beta;xyz;Alpha;dynmat
           1 ;           1 ;           1 ;           1 ;  -13.241071436488376     
           2 ;           1 ;           1 ;           1 ;   5.1518831842690731E-002
           3 ;           1 ;           1 ;           1 ;   18.714432778997629     
           1 ;           2 ;           1 ;           1 ;   5.4034183364016934     
           2 ;           2 ;           1 ;           1 ;  -3.9844482662635787     
           3 ;           2 ;           1 ;           1 ;  -10.873773824686538     
           1 ;           3 ;           1 ;           1 ;   6.8588543662411610     
           2 ;           3 ;           1 ;           1 ;   9.5388320284448476     
           3 ;           3 ;           1 ;           1 ;  -6.2112132698588898     
           1 ;           4 ;           1 ;           1 ; -0.14389619467820514     
           2 ;           4 ;           1 ;           1 ; -0.28020494780744593     
           3 ;           4 ;           1 ;           1 ; -0.24038438797259981     
           1 ;           5 ;           1 ;           1 ; -0.11268550284638212     
           2 ;           5 ;           1 ;           1 ;   3.3804379137236648E-002
           3 ;           5 ;           1 ;           1 ;  -1.4368322806456862E-003
           1 ;           6 ;           1 ;           1 ;   1.1274680475425181E-002
           2 ;           6 ;           1 ;           1 ;   7.1478127841202110E-002
           3 ;           6 ;           1 ;           1 ; -0.82664422280275807     
           1 ;           7 ;           1 ;           1 ;  -4.2697833736281686E-002
           2 ;           7 ;           1 ;           1 ;   3.1437918603743148E-002
           3 ;           7 ;           1 ;           1 ;   5.5206360006354399E-002
           1 ;           8 ;           1 ;           1 ;   6.7442710581089776E-002
           2 ;           8 ;           1 ;           1 ;  -3.4677601759346761E-002
           3 ;           8 ;           1 ;           1 ;   3.0158274816293875E-002
           1 ;           9 ;           1 ;           1 ;  0.44468451001179399     
           2 ;           9 ;           1 ;           1 ;  -8.7630858675406056E-002
           3 ;           9 ;           1 ;           1 ;  -8.1778727519410344E-002
           1 ;          10 ;           1 ;           1 ;  0.61116963195239560     
           2 ;          10 ;           1 ;           1 ; -0.90698610699344684     
           3 ;          10 ;           1 ;           1 ;  -2.9938279511035171E-002
           1 ;          11 ;           1 ;           1 ;  0.97593177414771237     
           2 ;          11 ;           1 ;           1 ;  0.41588687269590030     
           3 ;          11 ;           1 ;           1 ; -0.64756824511028976     
           1 ;          12 ;           1 ;           1 ; -0.27265965145866544     
           2 ;          12 ;           1 ;           1 ;  -5.6282582372305843     
           3 ;          12 ;           1 ;           1 ;   1.0475257582985571     
           1 ;          13 ;           1 ;           1 ; -0.39818176389787885     
           2 ;          13 ;           1 ;           1 ;   6.1409881026278437E-002
           3 ;          13 ;           1 ;           1 ; -0.27116872873152120     
           1 ;          14 ;           1 ;           1 ;   6.4087066452151703E-002
           2 ;          14 ;           1 ;           1 ;  -6.8401339485524473E-002
           3 ;          14 ;           1 ;           1 ;  -6.4232582694710327E-002
           1 ;          15 ;           1 ;           1 ;   3.1016154341871376E-002
           2 ;          15 ;           1 ;           1 ;   7.4272285339129995E-002
           3 ;          15 ;           1 ;           1 ;  -2.6260850021501816E-002
           1 ;          16 ;           1 ;           1 ;  -5.6307091165357356E-002
           2 ;          16 ;           1 ;           1 ;   4.5551417468299500E-002
           3 ;          16 ;           1 ;           1 ;  -6.1645627480002289E-002
           1 ;          17 ;           1 ;           1 ;   2.0943430620699865E-003
           2 ;          17 ;           1 ;           1 ;  -3.3202221737564659E-002
           3 ;          17 ;           1 ;           1 ;   2.3069933498643280E-002
           1 ;          18 ;           1 ;           1 ;   1.3526145590860831E-002
           2 ;          18 ;           1 ;           1 ;   9.2698159047293986E-004
           3 ;          18 ;           1 ;           1 ;  -2.1986978077467204E-002
           1 ;          19 ;           1 ;           1 ;  -3.2627521394816908E-002
           2 ;          19 ;           1 ;           1 ;  -8.2387409443426554E-002
           3 ;          19 ;           1 ;           1 ;  -1.6882689604905132E-004
           1 ;          20 ;           1 ;           1 ;  -8.2106932085201229E-002
           2 ;          20 ;           1 ;           1 ;   4.7942460571840928E-002
           3 ;          20 ;           1 ;           1 ;   8.9576828745872271E-003
           1 ;          21 ;           1 ;           1 ;  -2.3662482787050770E-002
           2 ;          21 ;           1 ;           1 ;  -9.2878123484174836E-003
           3 ;          21 ;           1 ;           1 ;   1.0184581079300948E-002
           1 ;          22 ;           1 ;           1 ;   1.1369535370701674E-002
           2 ;          22 ;           1 ;           1 ;   8.4682370176841874E-003
           3 ;          22 ;           1 ;           1 ;  -1.2664219753839403E-002
           1 ;          23 ;           1 ;           1 ;   3.6050448457455057E-003
           2 ;          23 ;           1 ;           1 ;  -2.8563614448155849E-003
           3 ;          23 ;           1 ;           1 ;   1.6035534506906347E-002
           1 ;          24 ;           1 ;           1 ;   4.2987674307503939E-003
           2 ;          24 ;           1 ;           1 ;   7.4554337742001511E-003
           3 ;          24 ;           1 ;           1 ;  -9.5875215277816672E-003
           1 ;          25 ;           1 ;           1 ;  -2.8125947839657994E-002
           2 ;          25 ;           1 ;           1 ;   5.1599675465149014E-002
           3 ;          25 ;           1 ;           1 ;   8.4233601408851513E-002
           1 ;          26 ;           1 ;           1 ;  -9.3075045951884327E-003
           2 ;          26 ;           1 ;           1 ;  -7.6696418175399564E-003
           3 ;          26 ;           1 ;           1 ;  -4.0144682657687440E-003
           1 ;          27 ;           1 ;           1 ; -0.13681566569072359     
           2 ;          27 ;           1 ;           1 ;  -7.2608462777848659E-002
           3 ;          27 ;           1 ;           1 ;   1.8377839439930998E-002
           1 ;          28 ;           1 ;           1 ;   1.3133660539893961E-003
           2 ;          28 ;           1 ;           1 ;  -1.5268338995004912E-003
           3 ;          28 ;           1 ;           1 ;   1.5799828907314538E-002
           1 ;          29 ;           1 ;           1 ;  -8.2396899085761810E-003
           2 ;          29 ;           1 ;           1 ;  -1.9738575833138819E-003
           3 ;          29 ;           1 ;           1 ;  -1.3476836632674306E-002
           1 ;          30 ;           1 ;           1 ;  -2.2662170880548410E-004
           2 ;          30 ;           1 ;           1 ;  -1.7642191459940804E-003
           3 ;          30 ;           1 ;           1 ;   2.1996110365422937E-003
           1 ;          31 ;           1 ;           1 ;   6.9976615127924297E-003
           2 ;          31 ;           1 ;           1 ;  -3.5339088236659511E-003
           3 ;          31 ;           1 ;           1 ;   5.8160903547902357E-003
           1 ;          32 ;           1 ;           1 ;   6.4197013419544429E-003
           2 ;          32 ;           1 ;           1 ;  -1.7937800179803473E-003
           3 ;          32 ;           1 ;           1 ;   1.3297193683414654E-002
           1 ;          33 ;           1 ;           1 ;  0.17554299492878073     
           2 ;          33 ;           1 ;           1 ;   6.1458852891042831E-002
           3 ;          33 ;           1 ;           1 ; -0.16862524859250266     
           1 ;          34 ;           1 ;           1 ;   3.6077621719985971E-002
           2 ;          34 ;           1 ;           1 ;  -7.8889077149506395E-002
           3 ;          34 ;           1 ;           1 ;  -2.5215303889029428E-002
           1 ;          35 ;           1 ;           1 ; -0.19430098171075172     
           2 ;          35 ;           1 ;           1 ;  0.66844715635452023     
           3 ;          35 ;           1 ;           1 ; -0.12991740745794719     
           1 ;          36 ;           1 ;           1 ;   6.6043187302532128E-002
           2 ;          36 ;           1 ;           1 ;   3.1092615981662863E-002
           3 ;          36 ;           1 ;           1 ;  -6.7619336490888998E-002
           1 ;          37 ;           1 ;           1 ;   3.0558723197609684E-003
           2 ;          37 ;           1 ;           1 ;   6.0943975472905589E-003
           3 ;          37 ;           1 ;           1 ;   1.0640159409505244E-002
           1 ;          38 ;           1 ;           1 ;   9.5913298602085841E-003
           2 ;          38 ;           1 ;           1 ;   6.1390880263202652E-004
           3 ;          38 ;           1 ;           1 ;   6.0154058946228746E-003
           1 ;          39 ;           1 ;           1 ;  -5.6274695733278318E-003
           2 ;          39 ;           1 ;           1 ;  -1.2483734652434643E-002
           3 ;          39 ;           1 ;           1 ;  -2.4228017670281867E-003
           1 ;          40 ;           1 ;           1 ;   2.2452189213535069E-002
           2 ;          40 ;           1 ;           1 ;   9.0951699401282601E-003
           3 ;          40 ;           1 ;           1 ;  -6.3132400582644422E-003
           1 ;          41 ;           1 ;           1 ;  -1.8455035989966295E-002
           2 ;          41 ;           1 ;           1 ;   6.3020765436272398E-003
           3 ;          41 ;           1 ;           1 ;   1.3427624510447154E-002
           1 ;          42 ;           1 ;           1 ;   1.1591652531564557E-002
           2 ;          42 ;           1 ;           1 ;  -6.8338770438939687E-003
           3 ;          42 ;           1 ;           1 ;  -2.3313662539963627E-003
           1 ;          43 ;           1 ;           1 ;  -9.7677797869429456E-003
           2 ;          43 ;           1 ;           1 ;   9.3410047335509925E-003
           3 ;          43 ;           1 ;           1 ;  -9.0623091911345467E-003
           1 ;          44 ;           1 ;           1 ;  -9.6933727026273057E-003
           2 ;          44 ;           1 ;           1 ;   1.4984346596125178E-002
           3 ;          44 ;           1 ;           1 ;   6.7496507779997257E-003
           1 ;          45 ;           1 ;           1 ;  -2.2471657169151643E-002
           2 ;          45 ;           1 ;           1 ;  -7.0738927136461656E-003
           3 ;          45 ;           1 ;           1 ;   1.2064284073825175E-002
           1 ;          46 ;           1 ;           1 ;   1.0832241997585330E-002
           2 ;          46 ;           1 ;           1 ;   5.9796717765730452E-003
           3 ;          46 ;           1 ;           1 ;  -2.0322822548214575E-002
           1 ;          47 ;           1 ;           1 ;   6.0615595452684972E-003
           2 ;          47 ;           1 ;           1 ;   3.6700799353693810E-003
           3 ;          47 ;           1 ;           1 ;  -2.1958161088043927E-002
           1 ;          48 ;           1 ;           1 ;   9.7016464587665139E-003
           2 ;          48 ;           1 ;           1 ;  -1.5806104926762928E-002
           3 ;          48 ;           1 ;           1 ;  -1.0282222936513647E-002
           1 ;          49 ;           1 ;           1 ;   1.4173517928433082E-002
           2 ;          49 ;           1 ;           1 ;  -1.1273422172862932E-002
           3 ;          49 ;           1 ;           1 ;  -5.9841128493382028E-003
           1 ;          50 ;           1 ;           1 ;  -4.1539234009651208E-003
           2 ;          50 ;           1 ;           1 ;   3.6847726968592064E-003
           3 ;          50 ;           1 ;           1 ;   1.6399113861522693E-002
           1 ;          51 ;           1 ;           1 ;   9.2642432167022309E-003
           2 ;          51 ;           1 ;           1 ;  -6.0580498272653780E-003
           3 ;          51 ;           1 ;           1 ;   1.0815577884262174E-002
           1 ;          52 ;           1 ;           1 ;   3.5677448082939590E-003
           2 ;          52 ;           1 ;           1 ;   2.6377758584955400E-003
           3 ;          52 ;           1 ;           1 ;  -6.4320375997480386E-004
           1 ;          53 ;           1 ;           1 ;  -6.3601971624766673E-003
           2 ;          53 ;           1 ;           1 ;  -1.4527465276517373E-002
           3 ;          53 ;           1 ;           1 ;  -5.5025357384397844E-003
           1 ;          54 ;           1 ;           1 ;   8.9356401562176654E-003
           2 ;          54 ;           1 ;           1 ;  -1.5997308094581482E-003
           3 ;          54 ;           1 ;           1 ;   1.6256968566272786E-002
           1 ;          55 ;           1 ;           1 ;  -1.5228088555463485E-002
           2 ;          55 ;           1 ;           1 ;   1.3506528667211319E-002
           3 ;          55 ;           1 ;           1 ;  -2.7364060321154551E-003
           1 ;          56 ;           1 ;           1 ;   1.5612995010991803E-003
           2 ;          56 ;           1 ;           1 ;   6.8299818992082657E-003
           3 ;          56 ;           1 ;           1 ;   3.8321202015950094E-003
           1 ;          57 ;           1 ;           1 ;  -3.0819260887968387E-002
           2 ;          57 ;           1 ;           1 ;   1.3334000067695664E-002
           3 ;          57 ;           1 ;           1 ;  -1.4634829546651750E-002
           1 ;          58 ;           1 ;           1 ;   1.1006925578483311E-002
           2 ;          58 ;           1 ;           1 ;  -1.7578814591173687E-003
           3 ;          58 ;           1 ;           1 ;   1.3365074361185156E-002
           1 ;          59 ;           1 ;           1 ;  -2.0218246868937879E-002
           2 ;          59 ;           1 ;           1 ;  -4.8790712538174762E-003
           3 ;          59 ;           1 ;           1 ;  -3.1718337452979237E-002
           1 ;          60 ;           1 ;           1 ;   1.1478923104174197E-002
           2 ;          60 ;           1 ;           1 ;  -2.5027510966880835E-002
           3 ;          60 ;           1 ;           1 ;  -1.5413531706462437E-003
           1 ;           1 ;           2 ;           1 ;  0.25097757857474678     
           2 ;           1 ;           2 ;           1 ;  -26.615046090844537     
           3 ;           1 ;           2 ;           1 ;   8.0088337071783027     
           1 ;           2 ;           2 ;           1 ;  -3.6223526222622677     
           2 ;           2 ;           2 ;           1 ; -0.16201513460655093     
           3 ;           2 ;           2 ;           1 ;   4.5788343551963502     
           1 ;           3 ;           2 ;           1 ;   10.185882332789152     
           2 ;           3 ;           2 ;           1 ;   8.0959297775408423     
           3 ;           3 ;           2 ;           1 ;  -5.8863890538608636     
           1 ;           4 ;           2 ;           1 ; -0.43401914213459281     
           2 ;           4 ;           2 ;           1 ;  0.55605665689157480     
           3 ;           4 ;           2 ;           1 ;  0.76811457671787720     
           1 ;           5 ;           2 ;           1 ;   1.9751279352414608E-004
           2 ;           5 ;           2 ;           1 ;   7.7832978976634548E-002
           3 ;           5 ;           2 ;           1 ;   2.2872917564318328E-002
           1 ;           6 ;           2 ;           1 ;  0.20835591113701582     
           2 ;           6 ;           2 ;           1 ;  -8.2876217223447873E-002
           3 ;           6 ;           2 ;           1 ; -0.65464031616750562     
           1 ;           7 ;           2 ;           1 ;  -5.2648871293693028E-003
           2 ;           7 ;           2 ;           1 ;  -1.0777911048947403E-002
           3 ;           7 ;           2 ;           1 ;  -7.6318552800101983E-002
           1 ;           8 ;           2 ;           1 ;   1.6621764118164351E-002
           2 ;           8 ;           2 ;           1 ;   3.7988620500863185E-002
           3 ;           8 ;           2 ;           1 ;  -3.9406116160942313E-002
           1 ;           9 ;           2 ;           1 ;  -4.2234288691254659E-002
           2 ;           9 ;           2 ;           1 ;  0.31538461033631021     
           3 ;           9 ;           2 ;           1 ;  -9.4340556714216789E-002
           1 ;          10 ;           2 ;           1 ; -0.66602986967575073     
           2 ;          10 ;           2 ;           1 ;  0.39591854312462571     
           3 ;          10 ;           2 ;           1 ;   9.0766496459363855E-002
           1 ;          11 ;           2 ;           1 ;  0.33054003407429450     
           2 ;          11 ;           2 ;           1 ; -0.26530637566791249     
           3 ;          11 ;           2 ;           1 ; -0.22814609805183808     
           1 ;          12 ;           2 ;           1 ;  -6.6519158077533547     
           2 ;          12 ;           2 ;           1 ;   15.557613788861890     
           3 ;          12 ;           2 ;           1 ;  -5.3063750094120063     
           1 ;          13 ;           2 ;           1 ;  -2.5437620047252474E-002
           2 ;          13 ;           2 ;           1 ;  0.93232551132142372     
           3 ;          13 ;           2 ;           1 ; -0.96652872417220115     
           1 ;          14 ;           2 ;           1 ;  -1.9379769155564136E-002
           2 ;          14 ;           2 ;           1 ;  -6.3962556154279523E-002
           3 ;          14 ;           2 ;           1 ;  -1.0771554822317550E-002
           1 ;          15 ;           2 ;           1 ;  -1.1955847932250185E-002
           2 ;          15 ;           2 ;           1 ;  -5.4443109855252386E-003
           3 ;          15 ;           2 ;           1 ;   7.6299318139458380E-002
           1 ;          16 ;           2 ;           1 ;   7.8957242378538212E-002
           2 ;          16 ;           2 ;           1 ; -0.11403768400804318     
           3 ;          16 ;           2 ;           1 ;   4.0815725068184858E-002
           1 ;          17 ;           2 ;           1 ;   8.9458429459286684E-002
           2 ;          17 ;           2 ;           1 ;  -7.2136499635695572E-002
           3 ;          17 ;           2 ;           1 ;   2.3601024975752879E-002
           1 ;          18 ;           2 ;           1 ;   1.2218884887608967E-002
           2 ;          18 ;           2 ;           1 ;  0.10807052824401787     
           3 ;          18 ;           2 ;           1 ;  -3.3169095569862174E-002
           1 ;          19 ;           2 ;           1 ;  -9.8337307725835876E-002
           2 ;          19 ;           2 ;           1 ; -0.12102189612607481     
           3 ;          19 ;           2 ;           1 ;   7.9948204909477683E-003
           1 ;          20 ;           2 ;           1 ;  -4.1669728956768737E-002
           2 ;          20 ;           2 ;           1 ;   3.6745722462999633E-002
           3 ;          20 ;           2 ;           1 ;  -5.5256084590730725E-003
           1 ;          21 ;           2 ;           1 ;   8.4135526388440934E-003
           2 ;          21 ;           2 ;           1 ;   1.0383329112799749E-002
           3 ;          21 ;           2 ;           1 ;   7.5241963520579882E-003
           1 ;          22 ;           2 ;           1 ;   1.6700920626607383E-003
           2 ;          22 ;           2 ;           1 ;  -3.1292605153819065E-003
           3 ;          22 ;           2 ;           1 ;   7.8593310855466225E-003
           1 ;          23 ;           2 ;           1 ;   1.4041074243572350E-002
           2 ;          23 ;           2 ;           1 ;   2.8726109167043198E-002
           3 ;          23 ;           2 ;           1 ;  -1.7491353135211461E-003
           1 ;          24 ;           2 ;           1 ;  -1.3803807142044624E-002
           2 ;          24 ;           2 ;           1 ;  -6.3407902569402640E-003
           3 ;          24 ;           2 ;           1 ;   5.9387941663325188E-003
           1 ;          25 ;           2 ;           1 ;  -1.3092090768489354E-002
           2 ;          25 ;           2 ;           1 ;   8.9084925137593828E-004
           3 ;          25 ;           2 ;           1 ;   2.0089363682857238E-002
           1 ;          26 ;           2 ;           1 ;   7.4722744503775080E-003
           2 ;          26 ;           2 ;           1 ;  -3.8792772366833673E-003
           3 ;          26 ;           2 ;           1 ;   1.3067905111976738E-002
           1 ;          27 ;           2 ;           1 ;  -6.5392014289785624E-002
           2 ;          27 ;           2 ;           1 ;  -3.5306055035477096E-004
           3 ;          27 ;           2 ;           1 ;   3.6823321818694542E-002
           1 ;          28 ;           2 ;           1 ;  -1.2276772007376278E-002
           2 ;          28 ;           2 ;           1 ;  -4.1280065828848559E-003
           3 ;          28 ;           2 ;           1 ;  -9.4252789129700889E-003
           1 ;          29 ;           2 ;           1 ;   1.9391264245527814E-003
           2 ;          29 ;           2 ;           1 ;  -1.5983233687313575E-003
           3 ;          29 ;           2 ;           1 ;   5.7354507228766826E-003
           1 ;          30 ;           2 ;           1 ;  -9.2769341933786643E-003
           2 ;          30 ;           2 ;           1 ;   1.4339367480015147E-003
           3 ;          30 ;           2 ;           1 ;  -1.3049450563587774E-002
           1 ;          31 ;           2 ;           1 ;   4.2000620226571158E-003
           2 ;          31 ;           2 ;           1 ;  -1.7561668393004459E-004
           3 ;          31 ;           2 ;           1 ;   1.2581314514486129E-002
           1 ;          32 ;           2 ;           1 ;  -4.5418541871515463E-004
           2 ;          32 ;           2 ;           1 ;   5.0210599518781584E-003
           3 ;          32 ;           2 ;           1 ;   6.5589095251913235E-003
           1 ;          33 ;           2 ;           1 ;   5.3241487890929820E-002
           2 ;          33 ;           2 ;           1 ;  0.44433495232033543     
           3 ;          33 ;           2 ;           1 ;  0.15706071042830755     
           1 ;          34 ;           2 ;           1 ;  -9.5641521291169249E-003
           2 ;          34 ;           2 ;           1 ;  -3.5690923685028124E-002
           3 ;          34 ;           2 ;           1 ;  -5.9569861441294752E-002
           1 ;          35 ;           2 ;           1 ;  0.63137867137920156     
           2 ;          35 ;           2 ;           1 ;  0.99360156964033652     
           3 ;          35 ;           2 ;           1 ; -0.24140694653569539     
           1 ;          36 ;           2 ;           1 ;  -5.0592855959097731E-003
           2 ;          36 ;           2 ;           1 ;  -5.1694662537027196E-004
           3 ;          36 ;           2 ;           1 ;  -3.0227187685715282E-003
           1 ;          37 ;           2 ;           1 ;   4.4930746719817252E-003
           2 ;          37 ;           2 ;           1 ;   7.9819041824126108E-003
           3 ;          37 ;           2 ;           1 ;  -2.0123844005535938E-002
           1 ;          38 ;           2 ;           1 ;  -1.3939265368313645E-002
           2 ;          38 ;           2 ;           1 ;  -3.0319433878534079E-002
           3 ;          38 ;           2 ;           1 ;  -2.0996573820586222E-004
           1 ;          39 ;           2 ;           1 ;   5.9486179101214251E-003
           2 ;          39 ;           2 ;           1 ;   1.1839107697196921E-002
           3 ;          39 ;           2 ;           1 ;  -6.2763930545811867E-003
           1 ;          40 ;           2 ;           1 ;   4.3541744250325245E-003
           2 ;          40 ;           2 ;           1 ;  -8.3344326685215204E-003
           3 ;          40 ;           2 ;           1 ;   1.7978681076138637E-002
           1 ;          41 ;           2 ;           1 ;   6.4261476723155133E-003
           2 ;          41 ;           2 ;           1 ;  -2.8317959847418264E-002
           3 ;          41 ;           2 ;           1 ;  -1.7918551284161514E-003
           1 ;          42 ;           2 ;           1 ;  -3.3372184212783697E-003
           2 ;          42 ;           2 ;           1 ;   1.8560480729331148E-002
           3 ;          42 ;           2 ;           1 ;  -1.8184718044567894E-002
           1 ;          43 ;           2 ;           1 ;   9.7623975099318664E-004
           2 ;          43 ;           2 ;           1 ;   2.3907996256456614E-002
           3 ;          43 ;           2 ;           1 ;  -2.1403514090609789E-002
           1 ;          44 ;           2 ;           1 ;   1.3668890229255350E-002
           2 ;          44 ;           2 ;           1 ;  -1.8701771825131441E-002
           3 ;          44 ;           2 ;           1 ;  -8.8410613963198336E-003
           1 ;          45 ;           2 ;           1 ;  -1.7745195952168457E-003
           2 ;          45 ;           2 ;           1 ;  -2.9778635475372801E-002
           3 ;          45 ;           2 ;           1 ;  -3.4755732455203345E-002
           1 ;          46 ;           2 ;           1 ;   1.3204487576317656E-003
           2 ;          46 ;           2 ;           1 ;  -6.8633187897169110E-003
           3 ;          46 ;           2 ;           1 ;  -2.1802859632924252E-002
           1 ;          47 ;           2 ;           1 ;  -3.1964685077853629E-003
           2 ;          47 ;           2 ;           1 ;   1.4408452455691967E-002
           3 ;          47 ;           2 ;           1 ;   1.1118020285215099E-002
           1 ;          48 ;           2 ;           1 ;  -2.7116958740099846E-002
           2 ;          48 ;           2 ;           1 ;   1.8906682880096431E-002
           3 ;          48 ;           2 ;           1 ;   1.9128856289234660E-002
           1 ;          49 ;           2 ;           1 ;  -2.2661755030006080E-002
           2 ;          49 ;           2 ;           1 ;   2.9053972152791084E-003
           3 ;          49 ;           2 ;           1 ;  -2.9252510429877273E-003
           1 ;          50 ;           2 ;           1 ;  -3.5010469100397762E-002
           2 ;          50 ;           2 ;           1 ;  -2.0364383309218010E-003
           3 ;          50 ;           2 ;           1 ;  -4.3813585770201398E-002
           1 ;          51 ;           2 ;           1 ;   4.0382981877762868E-003
           2 ;          51 ;           2 ;           1 ;   1.2812759487392656E-002
           3 ;          51 ;           2 ;           1 ;   1.4896417914868301E-002
           1 ;          52 ;           2 ;           1 ;   1.1859315473452715E-002
           2 ;          52 ;           2 ;           1 ;  -2.9088961461076149E-003
           3 ;          52 ;           2 ;           1 ;   3.1218564212506543E-003
           1 ;          53 ;           2 ;           1 ;  -6.8827019939529796E-003
           2 ;          53 ;           2 ;           1 ;   2.1995297205156257E-002
           3 ;          53 ;           2 ;           1 ;   3.0865625380845476E-003
           1 ;          54 ;           2 ;           1 ;   4.3910562849225803E-003
           2 ;          54 ;           2 ;           1 ;  -7.6126566593062569E-003
           3 ;          54 ;           2 ;           1 ;  -1.5990304554828277E-002
           1 ;          55 ;           2 ;           1 ;   1.9194406999550898E-002
           2 ;          55 ;           2 ;           1 ;  -6.2150519161396104E-003
           3 ;          55 ;           2 ;           1 ;   2.1083478856162807E-002
           1 ;          56 ;           2 ;           1 ;   4.7449098037794209E-003
           2 ;          56 ;           2 ;           1 ;   4.3892932791464211E-003
           3 ;          56 ;           2 ;           1 ;   2.6766146128021783E-003
           1 ;          57 ;           2 ;           1 ;  -1.0995320394531353E-002
           2 ;          57 ;           2 ;           1 ;  -3.0188675374839255E-002
           3 ;          57 ;           2 ;           1 ;   1.0742711788748045E-002
           1 ;          58 ;           2 ;           1 ;   5.6422171258269710E-003
           2 ;          58 ;           2 ;           1 ;   1.8423470522932681E-003
           3 ;          58 ;           2 ;           1 ;   9.0049232831293426E-003
           1 ;          59 ;           2 ;           1 ;   7.3810266188664448E-003
           2 ;          59 ;           2 ;           1 ;  -1.8506995434942126E-002
           3 ;          59 ;           2 ;           1 ;   8.8371870713050190E-003
           1 ;          60 ;           2 ;           1 ;  -1.9104962338369891E-002
           2 ;          60 ;           2 ;           1 ;   1.7498198070502399E-002
           3 ;          60 ;           2 ;           1 ;   1.9903908734471725E-003
           1 ;           1 ;           3 ;           1 ;   18.239933792484138     
           2 ;           1 ;           3 ;           1 ;   7.6426208556662480     
           3 ;           1 ;           3 ;           1 ;  -8.1102991442205852     
           1 ;           2 ;           3 ;           1 ;  -8.9658402701282629     
           2 ;           2 ;           3 ;           1 ;   4.1034089945697954     
           3 ;           2 ;           3 ;           1 ;   8.3096861409328913     
           1 ;           3 ;           3 ;           1 ;  -7.7623535448275112     
           2 ;           3 ;           3 ;           1 ;  -7.0774586556588819     
           3 ;           3 ;           3 ;           1 ;  0.47715324693849664     
           1 ;           4 ;           3 ;           1 ; -0.47518498187397828     
           2 ;           4 ;           3 ;           1 ;  0.75354371533252862     
           3 ;           4 ;           3 ;           1 ;   8.8357463704312064E-002
           1 ;           5 ;           3 ;           1 ;  -6.8057578348331413E-002
           2 ;           5 ;           3 ;           1 ;   4.8208587266024082E-002
           3 ;           5 ;           3 ;           1 ;  -4.1030727823646751E-002
           1 ;           6 ;           3 ;           1 ;  -1.0025800718691857     
           2 ;           6 ;           3 ;           1 ; -0.49778634551262274     
           3 ;           6 ;           3 ;           1 ;   1.2589903916068357     
           1 ;           7 ;           3 ;           1 ;   4.8793600133060666E-002
           2 ;           7 ;           3 ;           1 ;  -7.5630441124940009E-002
           3 ;           7 ;           3 ;           1 ; -0.12043253630134457     
           1 ;           8 ;           3 ;           1 ;   8.0012428193735663E-002
           2 ;           8 ;           3 ;           1 ;   2.1769311986361430E-002
           3 ;           8 ;           3 ;           1 ;  -5.8391689555370455E-002
           1 ;           9 ;           3 ;           1 ; -0.15801644583584162     
           2 ;           9 ;           3 ;           1 ;  -6.3061754590936242E-002
           3 ;           9 ;           3 ;           1 ;   1.6158939162567103E-002
           1 ;          10 ;           3 ;           1 ;  -2.3225424790123202E-003
           2 ;          10 ;           3 ;           1 ;  -5.2785665198597051E-002
           3 ;          10 ;           3 ;           1 ; -0.50271791711490577     
           1 ;          11 ;           3 ;           1 ; -0.38372937749329245     
           2 ;          11 ;           3 ;           1 ; -0.28615031401253349     
           3 ;          11 ;           3 ;           1 ; -0.21158174825106352     
           1 ;          12 ;           3 ;           1 ;  0.72088918674097680     
           2 ;          12 ;           3 ;           1 ;  -3.6162941044128907     
           3 ;          12 ;           3 ;           1 ;  -1.7310100924579803     
           1 ;          13 ;           3 ;           1 ; -0.22116399148566621     
           2 ;          13 ;           3 ;           1 ;  -1.2194452108478675     
           3 ;          13 ;           3 ;           1 ;  0.65468738951384231     
           1 ;          14 ;           3 ;           1 ;  -3.5566774972389255E-002
           2 ;          14 ;           3 ;           1 ;  -6.4188616724201258E-002
           3 ;          14 ;           3 ;           1 ;  -7.8107437222809203E-002
           1 ;          15 ;           3 ;           1 ;   9.9190582535270619E-003
           2 ;          15 ;           3 ;           1 ;   7.8965779233192784E-002
           3 ;          15 ;           3 ;           1 ;   2.2319789666054857E-002
           1 ;          16 ;           3 ;           1 ;  -4.4753056918734727E-002
           2 ;          16 ;           3 ;           1 ;   4.8021555991084694E-002
           3 ;          16 ;           3 ;           1 ;  -2.4877796746217706E-003
           1 ;          17 ;           3 ;           1 ;  -3.1534287490096957E-002
           2 ;          17 ;           3 ;           1 ;   5.7922526653534498E-003
           3 ;          17 ;           3 ;           1 ;   1.3432803180724680E-002
           1 ;          18 ;           3 ;           1 ;   2.7140034532836945E-002
           2 ;          18 ;           3 ;           1 ;  -2.3618187359303232E-002
           3 ;          18 ;           3 ;           1 ;  -2.3422874702758740E-002
           1 ;          19 ;           3 ;           1 ;  -1.2811977206800204E-002
           2 ;          19 ;           3 ;           1 ;   3.9237438819481177E-002
           3 ;          19 ;           3 ;           1 ;  -1.9264488969053781E-002
           1 ;          20 ;           3 ;           1 ;  -1.2259304412829533E-002
           2 ;          20 ;           3 ;           1 ;   2.0175551581826379E-002
           3 ;          20 ;           3 ;           1 ;   8.9632462098094084E-002
           1 ;          21 ;           3 ;           1 ;   1.7835819869589046E-002
           2 ;          21 ;           3 ;           1 ;  -1.9986850984751617E-003
           3 ;          21 ;           3 ;           1 ;  -4.4793699642674874E-003
           1 ;          22 ;           3 ;           1 ;   1.5960268758585316E-002
           2 ;          22 ;           3 ;           1 ;  -9.4901119186029791E-003
           3 ;          22 ;           3 ;           1 ;   1.2185764032613523E-002
           1 ;          23 ;           3 ;           1 ;   5.0351547281119922E-004
           2 ;          23 ;           3 ;           1 ;  -7.0796613541720416E-003
           3 ;          23 ;           3 ;           1 ;  -1.2882331643453744E-002
           1 ;          24 ;           3 ;           1 ;  -8.8676264235314443E-003
           2 ;          24 ;           3 ;           1 ;   2.6605365241922775E-003
           3 ;          24 ;           3 ;           1 ;  -2.6202450057967539E-004
           1 ;          25 ;           3 ;           1 ;   3.4458657806752057E-003
           2 ;          25 ;           3 ;           1 ;  -6.6563603065497357E-002
           3 ;          25 ;           3 ;           1 ;  -3.0323689969605747E-002
           1 ;          26 ;           3 ;           1 ;   4.1660334579815064E-003
           2 ;          26 ;           3 ;           1 ;  -6.8735058034490319E-004
           3 ;          26 ;           3 ;           1 ;   1.0391237674739862E-002
           1 ;          27 ;           3 ;           1 ;   5.3226906876764679E-002
           2 ;          27 ;           3 ;           1 ;   2.2753796250586534E-002
           3 ;          27 ;           3 ;           1 ;  -3.4441427993164991E-002
           1 ;          28 ;           3 ;           1 ;  -1.4581551775965579E-003
           2 ;          28 ;           3 ;           1 ;  -2.9605077649043376E-003
           3 ;          28 ;           3 ;           1 ;   1.0208671772323238E-004
           1 ;          29 ;           3 ;           1 ;  -7.1524987225043122E-004
           2 ;          29 ;           3 ;           1 ;   2.2290339203225578E-003
           3 ;          29 ;           3 ;           1 ;   4.8894311954359639E-003
           1 ;          30 ;           3 ;           1 ;  -7.9822735607064398E-004
           2 ;          30 ;           3 ;           1 ;  -2.2658455905475699E-003
           3 ;          30 ;           3 ;           1 ;  -5.3385419458465873E-003
           1 ;          31 ;           3 ;           1 ;  -2.0548222792661176E-003
           2 ;          31 ;           3 ;           1 ;   2.5232961775111043E-003
           3 ;          31 ;           3 ;           1 ;   1.7928439899339594E-003
           1 ;          32 ;           3 ;           1 ;  -4.6349427788265781E-004
           2 ;          32 ;           3 ;           1 ;   1.0353001824459582E-004
           3 ;          32 ;           3 ;           1 ;  -2.6134875990886119E-003
           1 ;          33 ;           3 ;           1 ; -0.17231280947311148     
           2 ;          33 ;           3 ;           1 ;   6.2887961770696874E-002
           3 ;          33 ;           3 ;           1 ;  0.15186309684791827     
           1 ;          34 ;           3 ;           1 ;   3.5088629374007127E-002
           2 ;          34 ;           3 ;           1 ;  -5.4981919115560898E-002
           3 ;          34 ;           3 ;           1 ;   4.7687235213250322E-002
           1 ;          35 ;           3 ;           1 ; -0.10498253942905776     
           2 ;          35 ;           3 ;           1 ;   3.4598647139122016E-002
           3 ;          35 ;           3 ;           1 ; -0.29897338378275740     
           1 ;          36 ;           3 ;           1 ;  -5.7948329863091945E-002
           2 ;          36 ;           3 ;           1 ;   3.3062284392423633E-002
           3 ;          36 ;           3 ;           1 ;   3.1243190776154568E-002
           1 ;          37 ;           3 ;           1 ;   3.1685112371648001E-003
           2 ;          37 ;           3 ;           1 ;   1.3421825384747007E-002
           3 ;          37 ;           3 ;           1 ;   8.0536652458889427E-003
           1 ;          38 ;           3 ;           1 ;  -9.6495226409888009E-003
           2 ;          38 ;           3 ;           1 ;   3.8206389211895165E-003
           3 ;          38 ;           3 ;           1 ;   1.6037582536752703E-003
           1 ;          39 ;           3 ;           1 ;   5.3957367388721422E-003
           2 ;          39 ;           3 ;           1 ;   2.7129680276900426E-003
           3 ;          39 ;           3 ;           1 ;  -8.3589447333229198E-003
           1 ;          40 ;           3 ;           1 ;  -2.1205447422753945E-002
           2 ;          40 ;           3 ;           1 ;  -2.1514242332317250E-004
           3 ;          40 ;           3 ;           1 ;   4.5417777683426181E-003
           1 ;          41 ;           3 ;           1 ;   1.3556314089553264E-002
           2 ;          41 ;           3 ;           1 ;  -1.8117889876403091E-003
           3 ;          41 ;           3 ;           1 ;  -4.6916841122624743E-003
           1 ;          42 ;           3 ;           1 ;  -1.0334031132360050E-002
           2 ;          42 ;           3 ;           1 ;   3.2168926380109829E-003
           3 ;          42 ;           3 ;           1 ;  -1.1448753625302604E-003
           1 ;          43 ;           3 ;           1 ;   1.0563801918307365E-002
           2 ;          43 ;           3 ;           1 ;  -1.5800929264110603E-002
           3 ;          43 ;           3 ;           1 ;   1.8821726794528964E-002
           1 ;          44 ;           3 ;           1 ;   1.0008532627022407E-002
           2 ;          44 ;           3 ;           1 ;  -6.2747511944964175E-003
           3 ;          44 ;           3 ;           1 ;   8.2450710459290989E-004
           1 ;          45 ;           3 ;           1 ;   1.4236582630006803E-002
           2 ;          45 ;           3 ;           1 ;   1.8072873582261128E-002
           3 ;          45 ;           3 ;           1 ;  -7.8472268710865038E-003
           1 ;          46 ;           3 ;           1 ;  -8.5982109585878048E-003
           2 ;          46 ;           3 ;           1 ;  -3.6938453278207808E-003
           3 ;          46 ;           3 ;           1 ;   2.8633598406846462E-002
           1 ;          47 ;           3 ;           1 ;  -5.8846191485436425E-003
           2 ;          47 ;           3 ;           1 ;  -4.3459988058311685E-003
           3 ;          47 ;           3 ;           1 ;   8.6417853431610299E-003
           1 ;          48 ;           3 ;           1 ;   4.8395493445657529E-003
           2 ;          48 ;           3 ;           1 ;   7.7731355063091426E-003
           3 ;          48 ;           3 ;           1 ;   4.2376611732154509E-003
           1 ;          49 ;           3 ;           1 ;  -5.6916441564072578E-003
           2 ;          49 ;           3 ;           1 ;   7.8054025302071910E-004
           3 ;          49 ;           3 ;           1 ;   1.2093353043285258E-002
           1 ;          50 ;           3 ;           1 ;   2.5320588903917716E-002
           2 ;          50 ;           3 ;           1 ;  -3.0818408248354358E-003
           3 ;          50 ;           3 ;           1 ;   4.6227771039069124E-003
           1 ;          51 ;           3 ;           1 ;   2.0175735593562080E-003
           2 ;          51 ;           3 ;           1 ;  -1.6104853301626074E-002
           3 ;          51 ;           3 ;           1 ;  -1.9426683235938781E-003
           1 ;          52 ;           3 ;           1 ;  -1.0047999101625977E-002
           2 ;          52 ;           3 ;           1 ;   9.2381300269257110E-004
           3 ;          52 ;           3 ;           1 ;  -5.3517545871549482E-003
           1 ;          53 ;           3 ;           1 ;   2.5595104439885682E-003
           2 ;          53 ;           3 ;           1 ;   5.8326344166144762E-003
           3 ;          53 ;           3 ;           1 ;   1.4566090018989925E-002
           1 ;          54 ;           3 ;           1 ;  -3.6400639103495924E-003
           2 ;          54 ;           3 ;           1 ;  -1.7400108568492167E-002
           3 ;          54 ;           3 ;           1 ;  -1.9054005599425692E-002
           1 ;          55 ;           3 ;           1 ;  -1.0385654007993687E-002
           2 ;          55 ;           3 ;           1 ;   8.5086721429187412E-004
           3 ;          55 ;           3 ;           1 ;   3.3524512686958219E-003
           1 ;          56 ;           3 ;           1 ;  -3.7051155674028132E-003
           2 ;          56 ;           3 ;           1 ;  -8.7568819247413124E-003
           3 ;          56 ;           3 ;           1 ;  -1.0487370322818294E-002
           1 ;          57 ;           3 ;           1 ;   2.9414381086760106E-002
           2 ;          57 ;           3 ;           1 ;  -6.7533519469786113E-003
           3 ;          57 ;           3 ;           1 ;   6.6682219151487077E-004
           1 ;          58 ;           3 ;           1 ;  -1.9428066343797998E-002
           2 ;          58 ;           3 ;           1 ;   7.5730294051172516E-003
           3 ;          58 ;           3 ;           1 ;   7.0416759447175905E-003
           1 ;          59 ;           3 ;           1 ;   2.3014039762982053E-002
           2 ;          59 ;           3 ;           1 ;   1.6470243285810617E-002
           3 ;          59 ;           3 ;           1 ;   3.7211567382357730E-002
           1 ;          60 ;           3 ;           1 ;  -3.8835043736103660E-003
           2 ;          60 ;           3 ;           1 ;   2.3064006188121718E-002
           3 ;          60 ;           3 ;           1 ;   3.8826937854683627E-003
writedynmat: Saving into a file the force constant matrix

siesta: E_KS(eV) =            -5504.9247

siesta: E_KS - E_eggbox =     -5504.9247

siesta: Atomic forces (eV/Ang):
     1   85.868081   21.047055  107.740639
     2  123.923619    3.056223   63.766519
     3   55.668587  -10.450755  127.215289
     4  123.684648  -41.919860   48.995171
     5  127.759419  -54.777301  -10.912517
     6  128.580684   48.857587   23.194989
     7  131.838160   38.876687  -23.296617
     8  131.203868  -19.148296  -42.591075
     9  -16.841836   49.966073  128.905669
    10   21.974297   90.387748  104.073804
    11   -2.205731    6.235570  139.230833
    12   66.949088   77.779144   94.873553
    13   93.617682   94.648834   42.232430
    14   -9.473690  124.057611   63.268559
    15   11.308063  137.067027   22.566122
    16   68.738288  120.746513   10.596634
    17  -80.965538  -34.843316  108.483578
    18 -100.073186   21.527297   95.013127
    19  -38.004381  -41.754449  127.298835
    20  -71.777315   58.914144  103.945733
    21  -67.109557  104.355466   63.473251
    22 -131.365218   19.319759   42.441165
    23 -127.729765   54.654477   10.913285
    24  -91.806751  102.543573   22.480727
    25  -18.132453 -116.997695   74.003685
    26  -72.786857 -107.797337   48.896981
    27   -2.744223  -87.609957  108.425026
    28 -100.694188  -72.778526   63.671587
    29 -131.927783  -38.940176   23.243644
    30  -68.875339 -120.575876  -10.597916
    31  -93.183225  -94.709580  -42.224760
    32 -128.571779  -48.548513  -23.180723
    33   85.115384  -82.300539   73.785405
    34   65.577185 -119.464930   29.943062
    35   55.367147  -67.968371  108.462919
    36   20.003588 -135.110205   29.908354
    37  -11.246992 -137.114334  -22.559525
    38   91.702488 -102.226483  -22.498874
    39   67.473033 -104.627572  -63.687223
    40    9.200039 -123.978619  -63.384771
    41  -85.770162  -21.190317 -107.503845
    42  -66.836616  -77.525054  -94.877918
    43  -22.109928  -90.543955 -103.978453
    44  -55.741314   10.296941 -127.653634
    45  -85.075855   82.254672  -73.715579
    46 -123.661163   42.016478  -48.943545
    47 -124.085014   -3.211021  -63.639700
    48  -55.313957   68.247827 -108.317910
    49   17.999046  116.791094  -73.848556
    50  -20.001447  134.699835  -29.988400
    51  -65.603734  119.589065  -29.839040
    52    2.615372   87.731986 -108.247315
    53   80.953204   34.898956 -107.850574
    54  100.775905   72.639766  -64.092269
    55   72.999178  108.031684  -48.940529
    56   38.032503   41.534337 -127.508550
    57   16.913946  -50.079608 -128.749036
    58   71.854067  -58.947766 -104.223706
    59  100.022554  -21.483598  -94.815349
    60    1.976093   -6.168760 -139.387279
----------------------------------------
   Tot   -0.019782   -0.019337   -0.004613
----------------------------------------
   Max  139.387279
   Res   80.515600    sqrt( Sum f_i^2 / 3N )
----------------------------------------
   Max  139.387279    constrained

Stress-tensor-Voigt (kbar):    -3500.23    -3501.30    -3500.98        0.49        0.15       -0.04
(Free)E + p*V (eV/cell)     -117.8977
Target enthalpy (eV/cell)    -5504.9247

mulliken: Atomic and Orbital Populations:

Species: C                   
Atom  Qatom  Qorb
               2s      2py     2pz     2px     
   1  4.000   0.475   1.266   1.113   1.146
   2  4.000   0.475   1.272   1.211   1.042
   3  4.001   0.475   1.274   1.010   1.241
   4  4.000   0.475   1.232   1.249   1.043
   5  4.000   0.475   1.216   1.278   1.030
   6  4.000   0.476   1.242   1.257   1.026
   7  4.001   0.475   1.261   1.257   1.008
   8  4.000   0.475   1.275   1.240   1.010
   9  4.000   0.475   1.219   1.031   1.275
  10  4.000   0.475   1.146   1.106   1.272
  11  4.000   0.475   1.275   0.969   1.281
  12  4.000   0.476   1.194   1.147   1.183
  13  4.000   0.475   1.156   1.241   1.128
  14  4.000   0.475   1.053   1.194   1.278
  15  4.000   0.475   0.975   1.273   1.277
  16  4.000   0.475   1.030   1.278   1.217
  17  3.999   0.475   1.264   1.112   1.148
  18  4.000   0.476   1.274   1.147   1.103
  19  4.001   0.475   1.253   1.010   1.263
  20  4.000   0.475   1.206   1.106   1.212
  21  4.000   0.475   1.111   1.194   1.220
  22  4.000   0.475   1.276   1.241   1.009
  23  4.000   0.475   1.217   1.278   1.030
  24  4.000   0.475   1.119   1.273   1.132
  25  4.000   0.475   1.041   1.209   1.274
  26  4.001   0.475   1.068   1.249   1.209
  27  4.000   0.475   1.176   1.067   1.281
  28  3.999   0.475   1.212   1.211   1.101
  29  4.000   0.475   1.261   1.257   1.007
  30  4.000   0.475   1.030   1.278   1.217
  31  4.000   0.475   1.156   1.241   1.128
  32  4.000   0.475   1.241   1.257   1.027
  33  4.000   0.475   1.168   1.209   1.148
  34  4.000   0.475   1.071   1.268   1.185
  35  4.000   0.475   1.215   1.067   1.242
  36  3.999   0.475   0.983   1.268   1.273
  37  4.000   0.475   0.975   1.273   1.277
  38  4.001   0.475   1.120   1.273   1.133
  39  3.999   0.475   1.110   1.194   1.220
  40  4.001   0.475   1.053   1.195   1.278
  41  4.001   0.475   1.267   1.114   1.145
  42  3.999   0.476   1.194   1.148   1.182
  43  3.999   0.475   1.146   1.106   1.272
  44  3.999   0.475   1.274   1.009   1.241
  45  4.000   0.475   1.168   1.209   1.148
  46  4.000   0.475   1.232   1.249   1.043
  47  3.999   0.475   1.271   1.211   1.041
  48  4.000   0.475   1.215   1.068   1.242
  49  4.000   0.475   1.042   1.209   1.274
  50  4.000   0.475   0.983   1.268   1.273
  51  4.000   0.476   1.070   1.268   1.186
  52  4.000   0.475   1.176   1.068   1.281
  53  4.001   0.475   1.265   1.113   1.148
  54  3.999   0.475   1.212   1.210   1.101
  55  4.001   0.475   1.067   1.249   1.210
  56  4.000   0.475   1.253   1.010   1.263
  57  4.001   0.475   1.219   1.032   1.275
  58  4.000   0.476   1.207   1.106   1.212
  59  3.999   0.475   1.274   1.147   1.103
  60  4.000   0.475   1.275   0.969   1.281

mulliken: Qtot =      240.000

siesta: Eigenvalues (eV):
  ik is    eps
   1  1 -62.73 -60.26 -60.26 -60.26 -56.56 -56.56 -56.56 -56.55 -56.55 -53.26
        -53.25 -53.25 -51.34 -51.33 -51.33 -51.33 -48.81 -48.80 -48.80 -48.80
        -48.79 -47.56 -47.55 -47.55 -47.35 -47.34 -47.34 -47.34 -47.21 -45.68
        -45.68 -45.67 -35.23 -33.65 -33.65 -33.65 -31.71 -31.71 -31.70 -31.70
        -31.70 -30.47 -30.47 -30.47 -29.21 -29.21 -29.20 -29.20 -28.87 -28.85
        -28.85 -28.85 -28.30 -28.30 -28.29 -28.28 -28.28 -28.25 -28.24 -28.24
        -28.23 -28.23 -27.56 -27.55 -27.55 -27.54 -27.54 -26.86 -26.85 -26.84
        -26.08 -26.08 -26.07 -26.07 -25.73 -25.73 -25.73 -25.68 -25.68 -25.67
        -25.67 -25.67 -25.49 -25.49 -25.48 -25.44 -25.44 -25.44 -22.43 -22.43
        -22.42 -22.42 -22.27 -22.27 -22.27 -22.27 -22.27 -21.84 -21.83 -21.83
        -21.83 -21.38 -21.37 -21.37 -21.37 -20.19 -20.19 -20.18 -20.18 -20.17
        -19.42 -19.41 -19.41 -19.41 -19.40 -17.94 -17.94 -17.94 -17.94 -17.93
        -13.12 -13.12 -13.12  -7.81  -7.81  -7.80  -2.81  -2.81  -2.80  -1.89
         -1.89  -1.89  -1.88  -1.88   6.04   6.04   6.05   6.05   6.05  10.02
         10.02  10.03  10.04  21.28  21.28  21.29  21.29  21.33  21.34  21.34
         23.30  23.31  23.32  24.53  24.53  24.54  32.61  32.61  32.62  32.62
         32.64  40.53  40.53  40.54  40.54  40.55  45.40  45.41  45.42  45.44
         53.04  53.04  53.05  54.74  54.75  54.76  62.34  62.35  62.36  62.37
         67.50  67.51  67.52  67.53  67.55  72.01  72.02  72.03  72.03  72.04
         78.24  78.25  78.26  78.28  83.68  83.70  83.71  83.72  83.74  85.16
         85.18  85.19  94.04  94.07  94.09  96.38  96.40  96.41  96.42 100.27
        100.80 100.83 100.84 106.47 106.51 106.53 125.17 125.18 125.19 125.21
        125.23 127.39 127.42 127.44 140.97 141.00 141.02 141.02 141.02 144.84
        144.86 144.88 144.89 145.69 145.70 145.71 145.91 145.92 145.93 145.94
siesta: Fermi energy =     -17.163589 eV

siesta: Program's energy decomposition (eV):
siesta: Ebs     =     -7790.172479
siesta: Eions   =     18968.068878
siesta: Ena     =      5982.134232
siesta: Ekin    =     14068.021435
siesta: Enl     =      -515.891851
siesta: Eso     =         0.000000
siesta: Eldau   =         0.000000
siesta: DEna    =     -2283.873588
siesta: DUscf   =       301.400387
siesta: DUext   =         0.000000
siesta: Enegf   =         0.000000
siesta: Exc     =     -4088.646479
siesta: eta*DQ  =         0.000000
siesta: Emadel  =         0.000000
siesta: Emeta   =         0.000000
siesta: Emolmec =         0.000000
siesta: Ekinion =         0.000000
siesta: Eharris =     -5504.924743
siesta: Etot    =     -5504.924743
siesta: FreeEng =     -5504.924743

siesta: Final energy (eV):
siesta:  Band Struct. =   -7790.172479
siesta:       Kinetic =   14068.021435
siesta:       Hartree =  100173.048507
siesta:       Eldau   =       0.000000
siesta:       Eso     =       0.000000
siesta:    Ext. field =       0.000000
siesta:       Enegf   =       0.000000
siesta:   Exch.-corr. =   -4088.646479
siesta:  Ion-electron = -216840.762117
siesta:       Ion-ion =  101183.413912
siesta:       Ekinion =       0.000000
siesta:         Total =   -5504.924743
siesta:         Fermi =     -17.163589

siesta: Atomic forces (eV/Ang):
siesta:      1   85.868081   21.047055  107.740639
siesta:      2  123.923619    3.056223   63.766519
siesta:      3   55.668587  -10.450755  127.215289
siesta:      4  123.684648  -41.919860   48.995171
siesta:      5  127.759419  -54.777301  -10.912517
siesta:      6  128.580684   48.857587   23.194989
siesta:      7  131.838160   38.876687  -23.296617
siesta:      8  131.203868  -19.148296  -42.591075
siesta:      9  -16.841836   49.966073  128.905669
siesta:     10   21.974297   90.387748  104.073804
siesta:     11   -2.205731    6.235570  139.230833
siesta:     12   66.949088   77.779144   94.873553
siesta:     13   93.617682   94.648834   42.232430
siesta:     14   -9.473690  124.057611   63.268559
siesta:     15   11.308063  137.067027   22.566122
siesta:     16   68.738288  120.746513   10.596634
siesta:     17  -80.965538  -34.843316  108.483578
siesta:     18 -100.073186   21.527297   95.013127
siesta:     19  -38.004381  -41.754449  127.298835
siesta:     20  -71.777315   58.914144  103.945733
siesta:     21  -67.109557  104.355466   63.473251
siesta:     22 -131.365218   19.319759   42.441165
siesta:     23 -127.729765   54.654477   10.913285
siesta:     24  -91.806751  102.543573   22.480727
siesta:     25  -18.132453 -116.997695   74.003685
siesta:     26  -72.786857 -107.797337   48.896981
siesta:     27   -2.744223  -87.609957  108.425026
siesta:     28 -100.694188  -72.778526   63.671587
siesta:     29 -131.927783  -38.940176   23.243644
siesta:     30  -68.875339 -120.575876  -10.597916
siesta:     31  -93.183225  -94.709580  -42.224760
siesta:     32 -128.571779  -48.548513  -23.180723
siesta:     33   85.115384  -82.300539   73.785405
siesta:     34   65.577185 -119.464930   29.943062
siesta:     35   55.367147  -67.968371  108.462919
siesta:     36   20.003588 -135.110205   29.908354
siesta:     37  -11.246992 -137.114334  -22.559525
siesta:     38   91.702488 -102.226483  -22.498874
siesta:     39   67.473033 -104.627572  -63.687223
siesta:     40    9.200039 -123.978619  -63.384771
siesta:     41  -85.770162  -21.190317 -107.503845
siesta:     42  -66.836616  -77.525054  -94.877918
siesta:     43  -22.109928  -90.543955 -103.978453
siesta:     44  -55.741314   10.296941 -127.653634
siesta:     45  -85.075855   82.254672  -73.715579
siesta:     46 -123.661163   42.016478  -48.943545
siesta:     47 -124.085014   -3.211021  -63.639700
siesta:     48  -55.313957   68.247827 -108.317910
siesta:     49   17.999046  116.791094  -73.848556
siesta:     50  -20.001447  134.699835  -29.988400
siesta:     51  -65.603734  119.589065  -29.839040
siesta:     52    2.615372   87.731986 -108.247315
siesta:     53   80.953204   34.898956 -107.850574
siesta:     54  100.775905   72.639766  -64.092269
siesta:     55   72.999178  108.031684  -48.940529
siesta:     56   38.032503   41.534337 -127.508550
siesta:     57   16.913946  -50.079608 -128.749036
siesta:     58   71.854067  -58.947766 -104.223706
siesta:     59  100.022554  -21.483598  -94.815349
siesta:     60    1.976093   -6.168760 -139.387279
siesta: ----------------------------------------
siesta:    Tot   -0.019782   -0.019337   -0.004613

siesta: Stress tensor (static) (eV/Ang**3):
siesta:    -2.184650    0.000308   -0.000023
siesta:     0.000308   -2.185314    0.000091
siesta:    -0.000023    0.000091   -2.185117

siesta: Cell volume =       2465.428467 Ang**3

siesta: Pressure (static):
siesta:                Solid            Molecule  Units
siesta:           0.02379773          0.00000086  Ry/Bohr**3
siesta:           2.18502670          0.00007898  eV/Ang**3
siesta:        3500.83656471          0.12654635  kBar
(Free)E+ p_basis*V_orbitals  =       -5496.129793
(Free)Eharris+ p_basis*V_orbitals  =       -5496.129793

siesta: Electric dipole (a.u.)  =    0.000045    0.000247    0.000166
siesta: Electric dipole (Debye) =    0.000115    0.000627    0.000423

timer: Elapsed wall time (sec) =     283.878
timer: CPU execution times (sec):

Routine            Calls   Time/call    Tot.time        %
siesta                 1     283.031     283.031   100.00
Setup                  1       0.104       0.104     0.04
bands                  1       0.000       0.000     0.00
KSV_init               1       0.000       0.000     0.00
IterGeom               1     282.914     282.914    99.96
state_init             1       0.050       0.050     0.02
hsparse                1       0.006       0.006     0.00
overlap                1       0.034       0.034     0.01
Setup_H0               1       2.834       2.834     1.00
naefs                  2       0.002       0.004     0.00
MolMec                 2       0.000       0.000     0.00
kinefsm                2       0.043       0.086     0.03
nlefsm                 2       1.254       2.508     0.89
DHSCF_Init             1       2.310       2.310     0.82
DHSCF1                 1       0.026       0.026     0.01
INITMESH               1       0.000       0.000     0.00
DHSCF2                 1       2.283       2.283     0.81
REMESH                 1       0.217       0.217     0.08
REORD                287       0.004       1.193     0.42
PHION                  1       1.517       1.517     0.54
COMM_BSC             164       0.004       0.696     0.25
POISON                70       0.172      12.034     4.25
fft                  140       0.065       9.066     3.20
IterSCF               11       3.021      33.235    11.74
setup_H               12       2.635      31.618    11.17
DHSCF                 27       8.843     238.766    84.36
DHSCF3                27       2.127      57.425    20.29
rhoofd                69       1.138      78.541    27.75
CellXC                27       0.065       1.746     0.62
cellXC                69       0.066       4.554     1.61
vmat                  49       1.194      58.483    20.66
compute_dm            11       0.142       1.559     0.55
diagon                11       0.141       1.547     0.55
r-eigvec              11       0.102       1.120     0.40
r-buildHS             11       0.000       0.004     0.00
rdiag               1055       0.001       1.145     0.40
rdiag1              1055       0.000       0.044     0.02
rdiag2              1055       0.000       0.165     0.06
rdiag3              1055       0.001       0.781     0.28
rdiag4              1055       0.000       0.137     0.05
r-buildD              11       0.039       0.424     0.15
MIXER                 10       0.002       0.019     0.01
PostSCF                1       7.442       7.442     2.63
DHSCF4                 1       2.656       2.656     0.94
dfscf                  1       2.245       2.245     0.79
overfsm                1       0.051       0.051     0.02
Linres                 1     239.345     239.345    84.56
LRatom                 1     181.925     181.925    64.28
dvmat                  1       3.117       3.117     1.10
DHSCF-LR              14      12.763     178.685    63.13
dfscf2                 2       9.724      19.449     6.87
CellXC-LR             42       0.077       3.215     1.14
dynamat                6       9.079      54.476    19.25
dhinit                 1       0.020       0.020     0.01
dvnloc                 2       6.853      13.706     4.84
vmat-LR               36       1.194      42.972    15.18
delrho                12       1.940      23.281     8.23
delrhog               36       0.647      23.280     8.23
WriteLRDM             12       0.009       0.113     0.04
ddsmat                 1       0.191       0.191     0.07
state_analysis         1       0.002       0.002     0.00
siesta_move            1       0.000       0.000     0.00
Analysis               1       0.011       0.011     0.00
optical                1       0.000       0.000     0.00
  
>> End of run:  25-JUN-2018  13:02:43
Job completed
