<?xml version="1.0" encoding="UTF-8" ?>
<psml version="1.1" energy_unit="hartree" length_unit="bohr"
 uuid="2e703210-15ff-11ea-43ae-21fb3fd7aa35"
 xmlns="http://esl.cecam.org/PSML/ns/1.1">
<provenance creator="ONCVPSP-3.3.1+psml-3.3.1-75 (scalar-relativistic)"
 date="2019-12-03">
<annotation action="semilocal-pseudopotential-generation"
 action-cont="projectors-generation" />
<input-file name="oncvpsp-input">
<![CDATA[# ATOM AND REFERENCE CONFIGURATION
# atsym  z    nc    nv    iexc   psfile
  Si 14.00     3     2     4      upf
#
#   n    l    f        energy (Ha)
    1    0    2.00
    2    0    2.00
    2    1    6.00
    3    0    2.00
    3    1    2.00
#
# PSEUDOPOTENTIAL AND OPTIMIZATION
# lmax
    1
#
#   l,   rc,     ep,   ncon, nbas, qcut
    0   2.40480  -0.39736    5    8   5.11281
    1   3.56481  -0.14998    5    8   3.50314
#
# LOCAL POTENTIAL
# lloc, lpopt,  rc(5),   dvloc0
    4    5   1.27795      0.00000
#
# VANDERBILT-KLEINMAN-BYLANDER PROJECTORs
# l, nproj, debl
    0    2   0.56800
    1    2   1.00881
#
# MODEL CORE CHARGE
# icmod, fcfact
    0   0.00000
#
# LOG DERIVATIVE ANALYSIS
# epsh1, epsh2, depsh
   -5.00    3.00    0.02
#
# OUTPUT GRID
# rlmax, drl
    6.00    0.01
#
# TEST CONFIGURATIONS
# ncnf
    0
# nvcnf
#   n    l    f
]]>
</input-file>
</provenance>
<pseudo-atom-spec atomic-label="Si" atomic-number="14" z-pseudo="4"
 flavor="Hamann&apos;s oncvpsp" relativity="scalar" spin-dft="no"
 core-corrections="no">
<annotation pseudo-energy="-3.74313672328" cutoff_hint_low="10"
 cutoff_hint_normal="11" cutoff_hint_high="12" />
<exchange-correlation>
<annotation oncvpsp-xc-code="4" oncvpsp-xc-type="GGA -- Perdew-Burke-Ernzerhof" />
<libxc-info number-of-functionals="2">
<functional name="Perdew, Burke &amp; Ernzerhof (GGA)" type="exchange" id="101" />
<functional name="Perdew, Burke &amp; Ernzerhof (GGA)" type="correlation"
 id="130" />
</libxc-info>
</exchange-correlation>
<valence-configuration total-valence-charge="4">
<shell n="3" l="s" occupation="2" />
<shell n="3" l="p" occupation="2" />
</valence-configuration>
</pseudo-atom-spec>
<grid npts="457">
<annotation type="sampled from oncvpsp log grid"
 recipe="r(i:1..N) = r1*exp(a*(i-1)) + r=0; resampled"
 recipe-cont="r1: scale; a: step" scale="0.357142857143E-04"
 step="0.119285708653E-01" delta="0.500000000000E-02" rmax="44.1697227368" />
<grid-data>
  0.000000000000E+00  5.043762840785E-03  1.007452045417E-02  1.511338716874E-02
  2.012306398724E-02  2.524200484366E-02  3.055005847129E-02  3.567456681735E-02
  4.067657200651E-02  4.582995923277E-02  5.102395083885E-02  5.613299095240E-02
  6.175360044568E-02  6.713142577090E-02  7.297758014932E-02  7.839214240648E-02
  8.420843742015E-02  8.938366768873E-02  9.487695407084E-02  1.007078434632E-01
  1.068970840635E-01  1.121212442685E-01  1.176007140554E-01  1.233479706417E-01
  1.293761010181E-01  1.356988317486E-01  1.423305602273E-01  1.475161931447E-01
  1.528907580013E-01  1.584611382921E-01  1.642344683032E-01  1.702181422495E-01
  1.764198237449E-01  1.828474556171E-01  1.895092700805E-01  1.964137992801E-01
  2.035698862185E-01  2.109866960820E-01  2.160807588722E-01  2.212978127144E-01
  2.266408271046E-01  2.321128432342E-01  2.377169757212E-01  2.434564143831E-01
  2.493344260519E-01  2.553543564345E-01  2.615196320163E-01  2.678337620117E-01
  2.743003403617E-01  2.809230477794E-01  2.877056538450E-01  2.946520191514E-01
  3.017660975018E-01  3.090519381599E-01  3.165136881548E-01  3.241555946416E-01
  3.319820073186E-01  3.399973809033E-01  3.482062776679E-01  3.566133700359E-01
  3.652234432420E-01  3.740413980557E-01  3.830722535703E-01  3.923211500605E-01
  4.017933519076E-01  4.114942505960E-01  4.214293677824E-01  4.264865201958E-01
  4.316043584382E-01  4.367836107394E-01  4.420250140683E-01  4.473293142371E-01
  4.526972660080E-01  4.581296332001E-01  4.636271887985E-01  4.691907150641E-01
  4.748210036448E-01  4.805188556886E-01  4.862850819568E-01  4.921205029403E-01
  4.980259489756E-01  5.040022603633E-01  5.100502874877E-01  5.161708909375E-01
  5.223649416288E-01  5.286333209283E-01  5.349769207794E-01  5.413966438288E-01
  5.478934035547E-01  5.544681243974E-01  5.611217418902E-01  5.678552027928E-01
  5.746694652264E-01  5.815654988091E-01  5.885442847948E-01  5.956068162123E-01
  6.027540980069E-01  6.099871471830E-01  6.173069929492E-01  6.247146768645E-01
  6.322112529869E-01  6.397977880228E-01  6.474753614790E-01  6.552450658168E-01
  6.631080066066E-01  6.710653026859E-01  6.791180863181E-01  6.872675033539E-01
  6.955147133942E-01  7.038608899549E-01  7.123072206343E-01  7.208549072820E-01
  7.295051661693E-01  7.382592281634E-01  7.471183389013E-01  7.560837589681E-01
  7.651567640758E-01  7.743386452447E-01  7.836307089876E-01  7.930342774955E-01
  8.025506888254E-01  8.121812970913E-01  8.219274726564E-01  8.317906023283E-01
  8.417720895562E-01  8.518733546309E-01  8.620958348865E-01  8.724409849051E-01
  8.829102767240E-01  8.935052000447E-01  9.042272624452E-01  9.150779895945E-01
  9.260589254697E-01  9.371716325753E-01  9.484176921662E-01  9.597987044722E-01
  9.713162889259E-01  9.829720843930E-01  9.947677494057E-01  1.006704962399E+00
  1.018785421947E+00  1.031010847011E+00  1.043382977175E+00  1.055903572901E+00
  1.068574415776E+00  1.081397308765E+00  1.094374076470E+00  1.107506565388E+00
  1.120796644173E+00  1.134246203903E+00  1.147857158349E+00  1.161631444250E+00
  1.175571021581E+00  1.189677873840E+00  1.203954008326E+00  1.218401456426E+00
  1.233022273903E+00  1.247818541190E+00  1.262792363684E+00  1.277945872048E+00
  1.293281222513E+00  1.308800597183E+00  1.324506204349E+00  1.340400278801E+00
  1.356485082147E+00  1.372762903132E+00  1.389236057970E+00  1.405906890666E+00
  1.422777773354E+00  1.439851106634E+00  1.457129319914E+00  1.474614871753E+00
  1.492310250214E+00  1.510217973216E+00  1.528340588895E+00  1.546680675961E+00
  1.565240844073E+00  1.584023734202E+00  1.603032019012E+00  1.622268403240E+00
  1.641735624079E+00  1.661436451568E+00  1.681373688987E+00  1.701550173255E+00
  1.721968775334E+00  1.742632400638E+00  1.763543989446E+00  1.784706517319E+00
  1.806122995527E+00  1.827796471473E+00  1.849730029131E+00  1.871926789480E+00
  1.894389910954E+00  1.917122589886E+00  1.940128060964E+00  1.963409597696E+00
  1.986970512868E+00  2.010814159023E+00  2.034943928931E+00  2.059363256078E+00
  2.084075615151E+00  2.109084522533E+00  2.134393536803E+00  2.160006259245E+00
  2.185926334356E+00  2.212157450368E+00  2.238703339772E+00  2.265567779850E+00
  2.292754593208E+00  2.320267648326E+00  2.348110860106E+00  2.376288190428E+00
  2.404803648713E+00  2.433661292497E+00  2.462865228007E+00  2.492419610743E+00
  2.522328646072E+00  2.552596589825E+00  2.583227748903E+00  2.614226481890E+00
  2.645597199672E+00  2.677344366069E+00  2.709472498461E+00  2.741986168443E+00
  2.774890002464E+00  2.808188682494E+00  2.841886946684E+00  2.875989590044E+00
  2.910501465124E+00  2.945427482706E+00  2.980772612498E+00  3.016541883848E+00
  3.052740386455E+00  3.089373271092E+00  3.126445750345E+00  3.163963099349E+00
  3.201930656541E+00  3.240353824420E+00  3.279238070313E+00  3.318588927157E+00
  3.358411994283E+00  3.398712938214E+00  3.439497493473E+00  3.480771463394E+00
  3.522540720955E+00  3.564811209606E+00  3.607588944122E+00  3.650880011451E+00
  3.694690571589E+00  3.739026858448E+00  3.783895180749E+00  3.829301922918E+00
  3.875253545993E+00  3.921756588545E+00  3.968817667608E+00  4.016443479619E+00
  4.064640801374E+00  4.113416490991E+00  4.162777488883E+00  4.212730818749E+00
  4.263283588574E+00  4.314442991637E+00  4.366216307537E+00  4.418610903227E+00
  4.471634234066E+00  4.525293844875E+00  4.579597371013E+00  4.634552539465E+00
  4.690167169939E+00  4.746449175978E+00  4.803406566090E+00  4.861047444883E+00
  4.919380014222E+00  4.978412574392E+00  5.038153525285E+00  5.098611367588E+00
  5.159794703999E+00  5.221712240447E+00  5.284372787333E+00  5.347785260781E+00
  5.411958683910E+00  5.476902188117E+00  5.542625014375E+00  5.609136514547E+00
  5.676446152722E+00  5.744563506554E+00  5.813498268633E+00  5.883260247857E+00
  5.953859370831E+00  6.025305683281E+00  6.097609351480E+00  6.170780663698E+00
  6.244830031662E+00  6.319767992042E+00  6.395605207947E+00  6.472352470442E+00
  6.550020700087E+00  6.628620948488E+00  6.708164399870E+00  6.788662372669E+00
  6.870126321141E+00  6.952567836994E+00  7.035998651038E+00  7.120430634851E+00
  7.205875802469E+00  7.292346312099E+00  7.379854467844E+00  7.468412721458E+00
  7.558033674116E+00  7.648730078205E+00  7.740514839143E+00  7.833401017213E+00
  7.927401829420E+00  8.022530651373E+00  8.118801019189E+00  8.216226631419E+00
  8.314821350996E+00  8.414599207208E+00  8.515574397695E+00  8.617761290467E+00
  8.721174425953E+00  8.825828519064E+00  8.931738461293E+00  9.038919322829E+00
  9.147386354702E+00  9.257154990959E+00  9.368240850850E+00  9.480659741061E+00
  9.594427657953E+00  9.709560789849E+00  9.826075519327E+00  9.943988425559E+00
  1.006331628667E+01  1.018407608211E+01  1.030628499509E+01  1.042996041503E+01
  1.055511994001E+01  1.068178137929E+01  1.080996275584E+01  1.093968230891E+01
  1.107095849662E+01  1.120380999858E+01  1.133825571856E+01  1.147431478719E+01
  1.161200656463E+01  1.175135064341E+01  1.189236685113E+01  1.203507525334E+01
  1.217949615638E+01  1.232565011026E+01  1.247355791158E+01  1.262324060652E+01
  1.277471949380E+01  1.292801612773E+01  1.308315232126E+01  1.324015014911E+01
  1.339903195090E+01  1.355982033431E+01  1.372253817832E+01  1.388720863646E+01
  1.405385514010E+01  1.422250140178E+01  1.439317141861E+01  1.456588947563E+01
  1.474068014934E+01  1.491756831113E+01  1.509657913086E+01  1.527773808043E+01
  1.546107093740E+01  1.564660378865E+01  1.583436303411E+01  1.602437539052E+01
  1.621666789521E+01  1.641126790995E+01  1.660820312487E+01  1.680750156237E+01
  1.700919158111E+01  1.721330188009E+01  1.741986150265E+01  1.762889984068E+01
  1.784044663877E+01  1.805453199843E+01  1.827118638241E+01  1.849044061900E+01
  1.871232590643E+01  1.893687381731E+01  1.916411630312E+01  1.939408569875E+01
  1.962681472714E+01  1.986233650386E+01  2.010068454191E+01  2.034189275641E+01
  2.058599546949E+01  2.083302741512E+01  2.108302374411E+01  2.133602002904E+01
  2.159205226938E+01  2.185115689662E+01  2.211337077938E+01  2.237873122873E+01
  2.264727600347E+01  2.291904331551E+01  2.319407183530E+01  2.347240069732E+01
  2.375406950569E+01  2.403911833976E+01  2.432758775984E+01  2.461951881296E+01
  2.491495303871E+01  2.521393247518E+01  2.551649966488E+01  2.582269766086E+01
  2.613257003279E+01  2.644616087318E+01  2.676351480366E+01  2.708467698130E+01
  2.740969310508E+01  2.773860942234E+01  2.807147273541E+01  2.840833040823E+01
  2.874923037313E+01  2.909422113761E+01  2.944335179126E+01  2.979667201275E+01
  3.015423207691E+01  3.051608286183E+01  3.088227585617E+01  3.125286316645E+01
  3.162789752444E+01  3.200743229474E+01  3.239152148227E+01  3.278021974006E+01
  3.317358237694E+01  3.357166536547E+01  3.397452534985E+01  3.438221965405E+01
  3.479480628990E+01  3.521234396538E+01  3.563489209296E+01  3.606251079808E+01
  3.649526092765E+01  3.693320405879E+01  3.737640250749E+01  3.782491933758E+01
  3.827881836963E+01  3.873816419007E+01  3.920302216035E+01  3.967345842627E+01
  4.014953992739E+01  4.063133440652E+01  4.111891041939E+01  4.161233734443E+01
  4.211168539256E+01  4.261702561727E+01  4.312842992468E+01  4.364597108377E+01
  4.416972273678E+01
</grid-data>
</grid>
<valence-charge total-charge="4" is-unscreening-charge="yes"
 rescaled-to-z-pseudo="no">
<radfunc>
<data npts="457">
  2.180426640739E-02  2.181914775490E-02  2.186364121717E-02  2.193789898100E-02
  2.204119971532E-02  2.217713027199E-02  2.235053865009E-02  2.254933592059E-02
  2.277315545629E-02  2.303455716022E-02  2.332970940321E-02  2.365113104093E-02
  2.404043907383E-02  2.444802828080E-02  2.493015147255E-02  2.541305871373E-02
  2.597088678425E-02  2.650137972960E-02  2.709977304698E-02  2.777484957141E-02
  2.853655097699E-02  2.921579912190E-02  2.996410951510E-02  3.078860730737E-02
  3.169717176454E-02  3.269851920490E-02  3.380229544226E-02  3.470372822763E-02
  3.567368300909E-02  3.671747516229E-02  3.784084514174E-02  3.904999361357E-02
  4.035161949120E-02  4.175296107787E-02  4.326184052114E-02  4.488671178115E-02
  4.663671230484E-02  4.852171858117E-02  4.985862952937E-02  5.126364297113E-02
  5.274031119457E-02  5.429237481916E-02  5.592377237754E-02  5.763865025247E-02
  5.944137295540E-02  6.133653372669E-02  6.332896543061E-02  6.542375170960E-02
  6.762623835265E-02  6.994204482113E-02  7.237707586237E-02  7.493753312635E-02
  7.762992668333E-02  8.046108632113E-02  8.343817247806E-02  8.656868664270E-02
  8.986048102337E-02  9.332176725833E-02  9.696112390272E-02  1.007875023886E-01
  1.048102311115E-01  1.090390172482E-01  1.134839458602E-01  1.181554757777E-01
  1.230644316997E-01  1.282219918786E-01  1.336396706887E-01  1.364497391249E-01
  1.393292953011E-01  1.422798615576E-01  1.453029756135E-01  1.484001891917E-01
  1.515730664995E-01  1.548231825571E-01  1.581521213635E-01  1.615614738918E-01
  1.650528359034E-01  1.686278055719E-01  1.722879809051E-01  1.760349569565E-01
  1.798703228144E-01  1.837956583577E-01  1.878125307674E-01  1.919224907837E-01
  1.961270686950E-01  2.004277700501E-01  2.048260710796E-01  2.093234138176E-01
  2.139212009099E-01  2.186207901003E-01  2.234234883816E-01  2.283305458025E-01
  2.333431489197E-01  2.384624138856E-01  2.436893791630E-01  2.490249978581E-01
  2.544701296651E-01  2.600255324161E-01  2.656918532305E-01  2.714696192615E-01
  2.773592280359E-01  2.833609373881E-01  2.894748549890E-01  2.957009274726E-01
  3.020389291681E-01  3.084884504430E-01  3.150488856710E-01  3.217194208363E-01
  3.284990207941E-01  3.353864162061E-01  3.423800901767E-01  3.494782646198E-01
  3.566788863863E-01  3.639796131942E-01  3.713777994007E-01  3.788704816670E-01
  3.864543645676E-01  3.941258062051E-01  4.018808038951E-01  4.097149799939E-01
  4.176235679473E-01  4.256013986460E-01  4.336428871806E-01  4.417420200946E-01
  4.498923432446E-01  4.580869503797E-01  4.663184725637E-01  4.745790685687E-01
  4.828604163766E-01  4.911537059319E-01  4.994496332962E-01  5.077383963620E-01
  5.160096922874E-01  5.242527168197E-01  5.324561656816E-01  5.406082381957E-01
  5.486966433251E-01  5.567086083117E-01  5.646308900925E-01  5.724497896706E-01
  5.801511696185E-01  5.877204748805E-01  5.951427570394E-01  6.024027021960E-01
  6.094846626022E-01  6.163726921700E-01  6.230505859613E-01  6.295019237387E-01
  6.357101176356E-01  6.416584639700E-01  6.473301991974E-01  6.527085599572E-01
  6.577768471286E-01  6.625184937661E-01  6.669171367347E-01  6.709566918147E-01
  6.746214319872E-01  6.778960685555E-01  6.807658346935E-01  6.832165709508E-01
  6.852348121777E-01  6.868078752711E-01  6.879239470757E-01  6.885721717151E-01
  6.887427365730E-01  6.884269561016E-01  6.876173525863E-01  6.863077329570E-01
  6.844932607032E-01  6.821705219309E-01  6.793375845909E-01  6.759940499171E-01
  6.721410951374E-01  6.677815065677E-01  6.629197022594E-01  6.575617434589E-01
  6.517153342410E-01  6.453898088041E-01  6.385961060610E-01  6.313467313211E-01
  6.236557050435E-01  6.155384988312E-01  6.070119590443E-01  5.980942186221E-01
  5.888045979159E-01  5.791634955496E-01  5.691922705247E-01  5.589131169759E-01
  5.483489331511E-01  5.375231863293E-01  5.264597754981E-01  5.151828936802E-01
  5.037168918247E-01  4.920861461568E-01  4.803149308069E-01  4.684272974176E-01
  4.564469632508E-01  4.443972090965E-01  4.323007880116E-01  4.201798456117E-01
  4.080558522986E-01  3.959495474429E-01  3.838808951712E-01  3.718690510403E-01
  3.599323385257E-01  3.480882339429E-01  3.363533581460E-01  3.247434731515E-01
  3.132734817150E-01  3.019574278592E-01  2.908084964346E-01  2.798390099794E-01
  2.690604214511E-01  2.584833019954E-01  2.481173271148E-01  2.379712719419E-01
  2.280530154920E-01  2.183695433297E-01  2.089269571023E-01  1.997304861159E-01
  1.907845024306E-01  1.820925390746E-01  1.736573113382E-01  1.654807410395E-01
  1.575639836394E-01  1.499074580464E-01  1.425108789518E-01  1.353732914788E-01
  1.284931079220E-01  1.218681463198E-01  1.154956705763E-01  1.093724318201E-01
  1.034947106676E-01  9.785836003081E-02  9.245884809325E-02  8.729130106176E-02
  8.235054529017E-02  7.763114836781E-02  7.312745876682E-02  6.883364365330E-02
  6.474372448527E-02  6.085161004951E-02  5.715112662704E-02  5.363604502601E-02
  5.030010427957E-02  4.713703187499E-02  4.414056062485E-02  4.130444370361E-02
  3.862247134247E-02  3.608848850908E-02  3.369641048725E-02  3.144023736688E-02
  2.931406721400E-02  2.731210794739E-02  2.542868795256E-02  2.365826546785E-02
  2.199543678130E-02  2.043494328071E-02  1.897167740221E-02  1.760068752611E-02
  1.631718187095E-02  1.511653143930E-02  1.399427207047E-02  1.294610565683E-02
  1.196790058136E-02  1.105569143482E-02  1.020567807072E-02  9.414224056389E-03
  8.677854577470E-03  7.993253852215E-03  7.357262110563E-03  6.766872191195E-03
  6.219225807772E-03  5.711609533319E-03  5.241450549226E-03  4.806312202756E-03
  4.403889414170E-03  4.032003971785E-03  3.688599750382E-03  3.371737885501E-03
  3.079591933278E-03  2.810443042653E-03  2.562675164005E-03  2.334770315568E-03
  2.125303926425E-03  1.932940272394E-03  1.756428018762E-03  1.594595881658E-03
  1.446348417719E-03  1.310661949856E-03  1.186580635074E-03  1.073212678722E-03
  9.697266980246E-04  8.753482364368E-04  7.893564291286E-04  7.110808188729E-04
  6.398983206641E-04  5.752303326015E-04  5.165399898920E-04  4.633295582670E-04
  4.151379626542E-04  3.715384465962E-04  3.321363576477E-04  2.965670538090E-04
  2.644939259551E-04  2.356065311838E-04  2.096188320316E-04  1.862675365743E-04
  1.653105345392E-04  1.465254246961E-04  1.297081289562E-04  1.146715887882E-04
  1.012445397501E-04  8.927036012745E-05  7.860598986632E-05  6.912091617758E-05
  6.069622237531E-05  5.322369668860E-05  4.660499795278E-05  4.075087524268E-05
  3.558043865562E-05  3.102047858683E-05  2.700483096345E-05  2.347378601813E-05
  2.037353828794E-05  1.765567562173E-05  1.527670506889E-05  1.319761360682E-05
  1.138346174266E-05  9.803008100124E-06  8.428363173062E-06  7.234670496175E-06
  6.199813549983E-06  5.304146782103E-06  4.530249191005E-06  3.862698981637E-06
  3.287867865038E-06  2.793733636300E-06  2.369709727229E-06  2.006490491569E-06
  1.695911041848E-06  1.430820517522E-06  1.204967724092E-06  1.012898142054E-06
  8.498613627784E-07  7.117280654904E-07  5.949157052971E-07  4.963221365085E-07
  4.132664481488E-07  3.434363394412E-07  2.848414120240E-07  2.357718026236E-07
  1.947616247825E-07  1.605567309434E-07  1.320863466920E-07  1.084381672170E-07
  8.883654206518E-08  7.262340804762E-08  5.924166172925E-08  4.822069233738E-08
  3.916382321855E-08  3.173743521656E-08  2.566156861508E-08  2.070182166710E-08
  1.666238330977E-08  1.338005552986E-08  1.071913709788E-08  8.567055126325E-09
  6.830644227841E-09  5.432985049828E-09  4.310724740127E-09  3.411811547595E-09
  2.693584372890E-09  2.121165746186E-09  1.666113503325E-09  1.305292439528E-09
  1.019932514761E-09  7.948448373934E-10  6.177707281266E-10  4.788427248041E-10
  3.701394866480E-10  2.853192448320E-10  2.193187720947E-10  1.681068498965E-10
  1.284829360670E-10  9.791321378981E-11  7.439746539768E-11  5.636128973885E-11
  4.256909472925E-11  3.205406917408E-11  2.406198952916E-11  1.800626511359E-11
  1.343208440654E-11  9.987908569316E-12  7.402877630335E-12  5.468959721949E-12
  4.026892881718E-12  2.955149541533E-12  2.161302190288E-12  1.575290150128E-12
  1.144186489605E-12  8.281446482792E-13  5.972696024737E-13  4.292110778831E-13
  3.073186842848E-13  2.192328038624E-13  1.558121789280E-13  1.103207158456E-13
  7.781311905037E-14  5.467246912207E-14  3.826347813111E-14  2.667347657320E-14
  1.851968116122E-14  1.280634241918E-14  8.819281444169E-15  6.048341247276E-15
  4.130594653308E-15  2.808924752868E-15  1.901938817197E-15  1.282210480635E-15
  8.606084456777E-16  5.750588150952E-16  3.825215467478E-16  2.532869579881E-16
  1.669394809543E-16  1.095141704690E-16  7.150263133627E-17  4.646107771885E-17
  3.004324896738E-17  1.933166282765E-17  1.237743001447E-17  7.885055275085E-18
  4.997646176294E-18  3.151271228468E-18  1.976687917544E-18  1.233372937457E-18
  7.654659520732E-19  4.725009612446E-19  2.900636835024E-19  0.000000000000E+00
  0.000000000000E+00  0.000000000000E+00  0.000000000000E+00  0.000000000000E+00
  0.000000000000E+00  0.000000000000E+00  0.000000000000E+00  0.000000000000E+00
  0.000000000000E+00  0.000000000000E+00  0.000000000000E+00  0.000000000000E+00
  0.000000000000E+00  0.000000000000E+00  0.000000000000E+00  0.000000000000E+00
  0.000000000000E+00
</data>
</radfunc>
</valence-charge>
<semilocal-potentials set="scalar_relativistic">
<slps n="3" l="s" rc="2.40480364871" eref="-0.397364586851">
<radfunc>
<data npts="290">
  8.600099992882E+00  1.491626088461E+01  1.349935649024E+01  1.250021211893E+01
  1.286069099323E+01  1.367257402951E+01  1.429957920116E+01  1.463043045506E+01
  1.478021371291E+01  1.483208482799E+01  1.482568303422E+01  1.478637035091E+01
  1.472003545997E+01  1.464139375174E+01  1.454354492035E+01  1.444363039279E+01
  1.432772957794E+01  1.421786154403E+01  1.409482273583E+01  1.395745249704E+01
  1.380448156110E+01  1.366996134747E+01  1.352385857264E+01  1.336542191332E+01
  1.319388620079E+01  1.300848157222E+01  1.280844397012E+01  1.264836292129E+01
  1.247932651050E+01  1.230104430325E+01  1.211324320040E+01  1.191567157383E+01
  1.170810365384E+01  1.149034413366E+01  1.126223294554E+01  1.102365015050E+01
  1.077452087270E+01  1.051482019806E+01  1.033582575115E+01  1.015216823364E+01
  9.963883222389E+00  9.771019106541E+00  9.573637576826E+00  9.371814067536E+00
  9.165638145273E+00  8.955213839018E+00  8.740659906468E+00  8.522110032358E+00
  8.299712955102E+00  8.073632519134E+00  7.844047651171E+00  7.611152259794E+00
  7.375155058874E+00  7.136279316412E+00  6.894762531624E+00  6.650856043992E+00
  6.404824578941E+00  6.156945735457E+00  5.907509421195E+00  5.656817240679E+00
  5.405181841454E+00  5.152926222021E+00  4.900383003355E+00  4.647893663200E+00
  4.395807728793E+00  4.144481919135E+00  3.894279222702E+00  3.769713944423E+00
  3.645567890158E+00  3.521887729909E+00  3.398720314932E+00  3.276112634138E+00
  3.154111767172E+00  3.032764833857E+00  2.912118939518E+00  2.792221115830E+00
  2.673118256689E+00  2.554857048730E+00  2.437483896039E+00  2.321044838628E+00
  2.205585464344E+00  2.091150813823E+00  1.977785278275E+00  1.865532489845E+00
  1.754435204522E+00  1.644535177607E+00  1.535873031903E+00  1.428488119040E+00
  1.322418374443E+00  1.217700166774E+00  1.114368142847E+00  1.012455069360E+00
  9.119916730468E-01  8.130064811160E-01  7.155256642539E-01  6.195728846681E-01
  5.251691519864E-01  4.323326900894E-01  3.410788181258E-01  2.514198491417E-01
  1.633650097846E-01  7.692038453277E-02 -7.911112279771E-03 -9.112973364794E-02
 -1.727388637240E-01 -2.527449463039E-01 -3.311573767014E-01 -4.079883565807E-01
 -4.832527122881E-01 -5.569676782504E-01 -6.291526480814E-01 -6.998288971141E-01
 -7.690192810663E-01 -8.367479164416E-01 -9.030398489573E-01 -9.679207168009E-01
 -1.031416415717E+00 -1.093552772837E+00 -1.154355235852E+00 -1.213848583373E+00
 -1.272056661492E+00 -1.329002150317E+00 -1.384706363030E+00 -1.439189078579E+00
 -1.492468407727E+00 -1.544560690886E+00 -1.595480424923E+00 -1.645240215219E+00
 -1.693850748469E+00 -1.741320781318E+00 -1.787657139788E+00 -1.832864724566E+00
 -1.876946517754E+00 -1.919903587294E+00 -1.961735086298E+00 -2.002438245500E+00
 -2.042008358376E+00 -2.080438759711E+00 -2.117720799691E+00 -2.153843816948E+00
 -2.188795115103E+00 -2.222559948438E+00 -2.255121523157E+00 -2.286461021269E+00
 -2.316557654388E+00 -2.345388754604E+00 -2.372929909067E+00 -2.399155143886E+00
 -2.424037161496E+00 -2.447547633732E+00 -2.469657550479E+00 -2.490337621164E+00
 -2.509558723476E+00 -2.527292390851E+00 -2.543511327545E+00 -2.558189937806E+00
 -2.571304853901E+00 -2.582835446823E+00 -2.592764303468E+00 -2.601077655024E+00
 -2.607765743339E+00 -2.612823114875E+00 -2.616248835543E+00 -2.618046623774E+00
 -2.618224903536E+00 -2.616796783188E+00 -2.613779969877E+00 -2.609196631990E+00
 -2.603073224204E+00 -2.595440290446E+00 -2.586332259908E+00 -2.575787249959E+00
 -2.563846887663E+00 -2.550556158718E+00 -2.535963289284E+00 -2.520119662514E+00
 -2.503079767953E+00 -2.484901178433E+00 -2.465644545930E+00 -2.445373605112E+00
 -2.424155171139E+00 -2.402059116683E+00 -2.379158312245E+00 -2.355528513514E+00
 -2.331248179944E+00 -2.306398209746E+00 -2.281061578216E+00 -2.255322868736E+00
 -2.229267688857E+00 -2.202981967677E+00 -2.176551135231E+00 -2.150059189801E+00
 -2.123587664871E+00 -2.097214513937E+00 -2.071012938209E+00 -2.045050189505E+00
 -2.019386387882E+00 -1.994073400625E+00 -1.969153835738E+00 -1.944660208622E+00
 -1.920614344728E+00 -1.897027083137E+00 -1.873898345717E+00 -1.851217633169E+00
 -1.828965002392E+00 -1.807112568718E+00 -1.785626561210E+00 -1.764469939103E+00
 -1.743605552442E+00 -1.722999799959E+00 -1.702626702506E+00 -1.682472270270E+00
 -1.662538994267E+00 -1.642847650464E+00 -1.623390809082E+00 -1.604170352547E+00
 -1.585182784457E+00 -1.566424864645E+00 -1.547893157657E+00 -1.529584206596E+00
 -1.511494513297E+00 -1.493620565212E+00 -1.475958859159E+00 -1.458505927873E+00
 -1.441258368870E+00 -1.424212872805E+00 -1.407366253485E+00 -1.390715475220E+00
 -1.374257677949E+00 -1.357990198121E+00 -1.341910583791E+00 -1.326016602422E+00
 -1.310306239944E+00 -1.294777689874E+00 -1.279429331711E+00 -1.264259698358E+00
 -1.249267433151E+00 -1.234451237976E+00 -1.219809815168E+00 -1.205341807098E+00
 -1.191045738752E+00 -1.176919969816E+00 -1.162962663902E+00 -1.149171783215E+00
 -1.135545116575E+00 -1.122080353588E+00 -1.108775254802E+00 -1.095627852006E+00
 -1.082636315079E+00 -1.069798790993E+00 -1.057113461734E+00 -1.044578528826E+00
 -1.032192214068E+00 -1.019952759441E+00 -1.007858426990E+00 -9.959074987134E-01
 -9.840982764204E-01 -9.724290815906E-01 -9.608982552182E-01 -9.495041576490E-01
 -9.382451684098E-01 -9.271196860304E-01 -9.161261278611E-01 -9.052629298845E-01
 -8.945285465238E-01 -8.839214504485E-01 -8.734401323770E-01 -8.630831008785E-01
 -8.528488821735E-01 -8.427360199343E-01 -8.327430750849E-01 -8.228686256026E-01
 -8.131112663196E-01 -8.034696087259E-01 -7.939422807744E-01 -7.845279266868E-01
 -7.752252067617E-01 -7.660327971846E-01 -7.569493898398E-01 -7.479736921250E-01
 -7.391044267667E-01 -7.303403316390E-01 -7.216801595843E-01 -7.131226782353E-01
 -7.046666698399E-01 -6.963109310885E-01 -6.880542729420E-01 -6.798955204636E-01
 -6.718335126511E-01 -6.638671022720E-01
</data>
</radfunc>
</slps>
<slps n="3" l="p" rc="3.56481120961" eref="-0.149981485827">
<radfunc>
<data npts="290">
 -9.937869047357E+00 -3.618170826068E+00 -5.024506659691E+00 -6.006038056572E+00
 -5.621110535616E+00 -4.777149703672E+00 -4.109375908489E+00 -3.731997371332E+00
 -3.530097394145E+00 -3.417713326423E+00 -3.356244249695E+00 -3.322188546178E+00
 -3.300408234734E+00 -3.287664422101E+00 -3.278544338818E+00 -3.272521165353E+00
 -3.267522679310E+00 -3.263854583093E+00 -3.260475302475E+00 -3.257283011188E+00
 -3.254210292585E+00 -3.251808669685E+00 -3.249441896861E+00 -3.247101578230E+00
 -3.244783597187E+00 -3.242487364832E+00 -3.240215371142E+00 -3.238530397848E+00
 -3.236865313021E+00 -3.235224328275E+00 -3.233612603928E+00 -3.232036297803E+00
 -3.230502620528E+00 -3.229019891821E+00 -3.227597591758E+00 -3.226246400387E+00
 -3.224978217854E+00 -3.223806155830E+00 -3.223085185529E+00 -3.222417755728E+00
 -3.221808554856E+00 -3.221262434328E+00 -3.220784372645E+00 -3.220379429809E+00
 -3.220052690550E+00 -3.219809194617E+00 -3.219653852355E+00 -3.219591343459E+00
 -3.219625996796E+00 -3.219761648879E+00 -3.220001478599E+00 -3.220347815639E+00
 -3.220801919999E+00 -3.221363730187E+00 -3.222031577686E+00 -3.222801865754E+00
 -3.223668711040E+00 -3.224623547277E+00 -3.225654691391E+00 -3.226746873675E+00
 -3.227880735642E+00 -3.229032301339E+00 -3.230172430946E+00 -3.231266268926E+00
 -3.232272703223E+00 -3.233143857006E+00 -3.233824639981E+00 -3.234074364201E+00
 -3.234252392683E+00 -3.234349673624E+00 -3.234356663739E+00 -3.234263331934E+00
 -3.234059167097E+00 -3.233733190413E+00 -3.233273972773E+00 -3.232669657705E+00
 -3.231907990412E+00 -3.230976353354E+00 -3.229861808919E+00 -3.228551149639E+00
 -3.227030956378E+00 -3.225287664904E+00 -3.223307641129E+00 -3.221077265305E+00
 -3.218583025245E+00 -3.215811618599E+00 -3.212750064045E+00 -3.209385821006E+00
 -3.205706917421E+00 -3.201702084729E+00 -3.197360899107E+00 -3.192673927600E+00
 -3.187632877575E+00 -3.182230747587E+00 -3.176461977431E+00 -3.170322594853E+00
 -3.163810356111E+00 -3.156924877308E+00 -3.149667753206E+00 -3.142042660097E+00
 -3.134055439238E+00 -3.125714157380E+00 -3.117029141104E+00 -3.108012981932E+00
 -3.098680509641E+00 -3.089048731752E+00 -3.079136737899E+00 -3.068965568640E+00
 -3.058558049189E+00 -3.047938589645E+00 -3.037132954304E+00 -3.026168003759E+00
 -3.015071414454E+00 -3.003871381280E+00 -2.992596309456E+00 -2.981274502489E+00
 -2.969933853154E+00 -2.958601544403E+00 -2.947303766747E+00 -2.936065457929E+00
 -2.924910069857E+00 -2.913859366531E+00 -2.902933255454E+00 -2.892149653612E+00
 -2.881524387648E+00 -2.871071126629E+00 -2.860801344499E+00 -2.850724308432E+00
 -2.840847088450E+00 -2.831174583333E+00 -2.821709557636E+00 -2.812452684741E+00
 -2.803402591417E+00 -2.794555899919E+00 -2.785907264645E+00 -2.777449401403E+00