
                           ***********************       
                           *  WELCOME TO SIESTA  *       
                           ***********************       

reinit: Reading from standard input
reinit: Dumped input in INPUT_TMP.56769
************************** Dump of input data file ****************************
# -----------------------------------------------------------------------------
#
#
SystemName          bulk silicon with test of various types of WFS output
SystemLabel         si_fatbands
NumberOfAtoms       2
NumberOfSpecies     1
%block ChemicalSpeciesLabel
 1  14  Si 28.0855
%endblock ChemicalSpeciesLabel
PAO.BasisSize       DZP
PAO.EnergyShift     300 meV
LatticeConstant    5.43 Ang
%block LatticeVectors
  0.500  0.500  0.000
  0.000  0.500  0.500
  0.500  0.000  0.500
%endblock LatticeVectors
MeshCutoff          90.0 Ry
MaxSCFIterations    50
DM.MixingWeight      0.3
DM.NumberPulay       3
DM.Tolerance         1.d-4
SolutionMethod       diagon
ElectronicTemperature  25 meV
AtomicCoordinatesFormat  Fractional
%block AtomicCoordinatesAndAtomicSpecies
    0.    0.    0.     1  Si        1
    0.25  0.25  0.25   1  Si        2
%endblock AtomicCoordinatesAndAtomicSpecies
MD.TypeOfRun	FC
MD.FCfirst	1
MD.FCLast	2
************************** End of input data file *****************************

reinit: -----------------------------------------------------------------------
reinit: System Name: bulk silicon with test of various types of WFS output
reinit: -----------------------------------------------------------------------
reinit: System Label: si_fatbands
reinit: -----------------------------------------------------------------------
Siesta Version: MaX-R2--pl-1-Linres628
Architecture  : unknown
Compiler flags: gfortran -O2 -fPIC -ftree-vectorize
PP flags      : -fbounds-check -g -fcheck=all -DFC_HAVE_FLUSH -DFC_HAVE_ABORT -fbacktrace -DL1 -DSIESTA__DIAG_2STAGE
Libraries     : libsiestaLAPACK.a libsiestaBLAS.a -L/home/likewise-open/ICN/sillera/Desktop/L1/LinresLibxc/libxc-2.2.3/INSTAL/lib -l xcf90 -l xc
SERIAL version

* Running in serial mode
>> Start of run:   6-NOV-2017  17:34:56

initatom: Reading input for the pseudopotentials and atomic orbitals ----------
Species number:   1 Atomic number:   14 Label: Si

Ground state valence configuration:   3s02  3p02
Reading pseudopotential information in formatted form from Si.psf

Pseudopotential generated from a relativistic atomic calculation
There are spin-orbit pseudopotentials available
Spin-orbit interaction is not included in this calculation

Valence configuration for pseudopotential generation:
3s( 2.00) rc: 1.55
3p( 2.00) rc: 1.73
3d( 0.00) rc: 1.23
4f( 0.00) rc: 1.23
For Si, standard SIESTA heuristics set lmxkb to 3
 (one more than the basis l, including polarization orbitals).
Use PS.lmax or PS.KBprojectors blocks to override.

<basis_specs>
===============================================================================
Si                   Z=  14    Mass=  28.090        Charge= 0.17977+309
Lmxo=1 Lmxkb= 3    BasisType=split      Semic=F
L=0  Nsemic=0  Cnfigmx=3
          n=1  nzeta=2  polorb=0
            splnorm:   0.15000    
               vcte:    0.0000    
               rinn:    0.0000    
               qcoe:    0.0000    
               qyuk:    0.0000    
               qwid:   0.10000E-01
                rcs:    0.0000      0.0000    
            lambdas:    1.0000      1.0000    
L=1  Nsemic=0  Cnfigmx=3
          n=1  nzeta=2  polorb=1
            splnorm:   0.15000    
               vcte:    0.0000    
               rinn:    0.0000    
               qcoe:    0.0000    
               qyuk:    0.0000    
               qwid:   0.10000E-01
                rcs:    0.0000      0.0000    
            lambdas:    1.0000      1.0000    
-------------------------------------------------------------------------------
L=0  Nkbl=1  erefs: 0.17977+309
L=1  Nkbl=1  erefs: 0.17977+309
L=2  Nkbl=1  erefs: 0.17977+309
L=3  Nkbl=1  erefs: 0.17977+309
===============================================================================
</basis_specs>

atom: Called for Si                    (Z =  14)

read_vps: Pseudopotential generation method:
read_vps: ATM3.3    Troullier-Martins                       
Total valence charge:    4.00000

xc_check: Exchange-correlation functional:
xc_check: Ceperley-Alder
V l=0 = -2*Zval/r beyond r=  2.5815
V l=1 = -2*Zval/r beyond r=  2.5815
V l=2 = -2*Zval/r beyond r=  2.5815
V l=3 = -2*Zval/r beyond r=  2.5815
All V_l potentials equal beyond r=  1.7089
This should be close to max(r_c) in ps generation
All pots = -2*Zval/r beyond r=  2.5815
Using large-core scheme for Vlocal

atom: Estimated core radius    2.58151

atom: Including non-local core corrections could be a good idea
atom: Maximum radius for 4*pi*r*r*local-pseudopot. charge    2.85303
atom: Maximum radius for r*vlocal+2*Zval:    2.61398
GHOST: No ghost state for L =  0
GHOST: No ghost state for L =  1
GHOST: No ghost state for L =  2
GHOST: No ghost state for L =  3

KBgen: Kleinman-Bylander projectors: 
   l= 0   rc=  1.774188   el= -0.799366   Ekb=  5.150368   kbcos=  0.299543
   l= 1   rc=  1.774188   el= -0.306456   Ekb=  1.756197   kbcos=  0.306543
   l= 2   rc=  1.774188   el=  0.002313   Ekb= -5.368900   kbcos= -0.037621
   l= 3   rc=  1.774188   el=  0.003402   Ekb= -1.813146   kbcos= -0.003268

KBgen: Total number of  Kleinman-Bylander projectors:   16
atom: -------------------------------------------------------------------------

atom: SANKEY-TYPE ORBITALS:
atom: Selected multiple-zeta basis: split     

SPLIT: Orbitals with angular momentum L= 0

SPLIT: Basis orbitals for state 3s

SPLIT: PAO cut-off radius determined from an
SPLIT: energy shift=  0.022049 Ry

   izeta = 1
                 lambda =    1.000000
                     rc =    4.883716
                 energy =   -0.776554
                kinetic =    0.594037
    potential(screened) =   -1.370590
       potential(ionic) =   -3.854598

   izeta = 2
                 rmatch =    4.418952
              splitnorm =    0.150000
                 energy =   -0.681781
                kinetic =    0.892960
    potential(screened) =   -1.574741
       potential(ionic) =   -4.157892

SPLIT: Orbitals with angular momentum L= 1

SPLIT: Basis orbitals for state 3p

SPLIT: PAO cut-off radius determined from an
SPLIT: energy shift=  0.022049 Ry

   izeta = 1
                 lambda =    1.000000
                     rc =    6.116033
                 energy =   -0.285100
                kinetic =    0.892341
    potential(screened) =   -1.177441
       potential(ionic) =   -3.447314

   izeta = 2
                 rmatch =    4.945148
              splitnorm =    0.150000
                 energy =   -0.199726
                kinetic =    1.256644
    potential(screened) =   -1.456370
       potential(ionic) =   -3.905925

POLgen: Perturbative polarization orbital with L=  2

POLgen: Polarization orbital for state 3p

   izeta = 1
                     rc =    6.116033
                 energy =    0.449119
                kinetic =    1.328515
    potential(screened) =   -0.879396
       potential(ionic) =   -2.959490
atom: Total number of Sankey-type orbitals: 13

atm_pop: Valence configuration (for local Pseudopot. screening):
 3s( 2.00)                                                            
 3p( 2.00)                                                            
Vna: chval, zval:    4.00000   4.00000

Vna:  Cut-off radius for the neutral-atom potential:   6.116033

atom: _________________________________________________________________________

prinput: Basis input ----------------------------------------------------------

PAO.BasisType split     

%block ChemicalSpeciesLabel
    1   14 Si                      # Species index, atomic number, species label
%endblock ChemicalSpeciesLabel

%block PAO.Basis                 # Define Basis set
Si                    2                    # Species label, number of l-shells
 n=3   0   2                         # n, l, Nzeta 
   4.884      4.419   
   1.000      1.000   
 n=3   1   2 P   1                   # n, l, Nzeta, Polarization, NzetaPol
   6.116      4.945   
   1.000      1.000   
%endblock PAO.Basis

prinput: ----------------------------------------------------------------------

coor:   Atomic-coordinates input format  =     Fractional

siesta: Atomic coordinates (Bohr) and species
siesta:      0.00000   0.00000   0.00000  1        1
siesta:      2.56530   2.56530   2.56530  1        2

siesta: System type = bulk      

initatomlists: Number of atoms, orbitals, and projectors:      2    26    32

siesta: ******************** Simulation parameters ****************************
siesta:
siesta: The following are some of the parameters of the simulation.
siesta: A complete list of the parameters used, including default values,
siesta: can be found in file out.fdf
siesta:
redata: Spin configuration                          = none
redata: Number of spin components                   = 1
redata: Time-Reversal Symmetry                      = T
redata: Spin-spiral                                 = F
redata: Long output                                 =   F
redata: Number of Atomic Species                    =        1
redata: Charge density info will appear in .RHO file
redata: Write Mulliken Pop.                         = NO
redata: Mesh Cutoff                                 =    90.0000 Ry
redata: Net charge of the system                    =     0.0000 |e|
redata: Min. number of SCF Iter                     =        0
redata: Max. number of SCF Iter                     =       50
redata: SCF mix quantity                            = Hamiltonian
redata: Mix DM or H after convergence               =   F
redata: Recompute H after scf cycle                 =   F
redata: Mix DM in first SCF step                    =   T
redata: Write Pulay info on disk                    =   F
redata: New DM Mixing Weight                        =     0.3000
redata: New DM Occupancy tolerance                  = 0.000000000001
redata: No kicks to SCF
redata: DM Mixing Weight for Kicks                  =     0.5000
redata: Require Harris convergence for SCF          =   F
redata: Harris energy tolerance for SCF             =     0.000100 eV
redata: Require DM convergence for SCF              =   T
redata: DM tolerance for SCF                        =     0.000100
redata: Require EDM convergence for SCF             =   F
redata: EDM tolerance for SCF                       =     0.001000 eV
redata: Require H convergence for SCF               =   T
redata: Hamiltonian tolerance for SCF               =     0.001000 eV
redata: Require (free) Energy convergence for SCF   =   F
redata: (free) Energy tolerance for SCF             =     0.000100 eV
redata: Using Saved Data (generic)                  =   F
redata: Use continuation files for DM               =   F
redata: Neglect nonoverlap interactions             =   F
redata: Method of Calculation                       = Diagonalization
redata: Electronic Temperature                      =   290.1109 K
redata: Fix the spin of the system                  =   F
redata: Max. number of TDED Iter                    =        1
redata: Write .TDWF and .DM after time steps        =      100
redata: Dynamics option                             = Force Constants Matrix Calculation
redata: Atomic displ for force constants            =     0.0212  Ang
redata: First atom to move                          =        1
redata: Last atom to move                           =        2
mix.SCF: Pulay mixing                            = Pulay
mix.SCF:    Variant                              = stable
mix.SCF:    History steps                        = 3
mix.SCF:    Linear mixing weight                 =     0.300000
mix.SCF:    Mixing weight                        =     0.300000
mix.SCF:    SVD condition                        = 0.1000E-07
redata: ***********************************************************************

%block SCF.Mixers
  Pulay
%endblock SCF.Mixers

%block SCF.Mixer.Pulay
  # Mixing method
  method pulay
  variant stable

  # Mixing options
  weight 0.3000
  weight.linear 0.3000
  history 3
%endblock SCF.Mixer.Pulay

DM_history_depth set to one for 'Forces' run
Size of DM history Fstack: 1
Total number of electrons:     8.000000
Total ionic charge:     8.000000
 Kpoints in:            1 . Kpoints trimmed:            1

siesta: k-grid: Number of k-points =     1
siesta: k-grid: Cutoff (effective) =     1.920 Ang
siesta: k-grid: Supercell and displacements
siesta: k-grid:    1   0   0      0.000
siesta: k-grid:    0   1   0      0.000
siesta: k-grid:    0   0   1      0.000

diag: Algorithm                                     = D&C
diag: Used triangular part                          = Lower
diag: Absolute tolerance                            =  0.100E-15
diag: Orthogonalization factor                      =  0.100E-05
diag: Memory factor                                 =  1.0000


                     ====================================
                        Begin FC step =      0
                        Undisplaced coordinates
                     ====================================

outcell: Unit cell vectors (Ang):
        2.715000    2.715000    0.000000
        0.000000    2.715000    2.715000
        2.715000    0.000000    2.715000

outcell: Cell vector modules (Ang)   :    3.839590    3.839590    3.839590
outcell: Cell angles (23,13,12) (deg):     60.0000     60.0000     60.0000
outcell: Cell volume (Ang**3)        :     40.0258
 Folding of H and S is implicitly performed
<dSpData1D:S at geom step 0
  <sparsity:sparsity for geom step 0
    nrows_g=26 nrows=26 sparsity=1.0000 nnzs=676, refcount: 7>
  <dData1D:(new from dSpData1D) n=676, refcount: 1>
refcount: 1>
new_DM -- step:     1
Initializing Density Matrix...
DM filled with atomic data:
<dSpData2D:DM initialized from atoms
  <sparsity:sparsity for geom step 0
    nrows_g=26 nrows=26 sparsity=1.0000 nnzs=676, refcount: 8>
  <dData2D:DM n=676 m=1, refcount: 1>
refcount: 1>

Note: For starting DM, Qtot, Tr[D*S] =          8.00000000          6.90117093
No. of atoms with KB's overlaping orbs in proc 0. Max # of overlaps:       2     161
New grid distribution:   1
           1       1:    9    1:    9    1:    9

InitMesh: MESH =    18 x    18 x    18 =        5832
InitMesh: (bp) =     9 x     9 x     9 =         729
InitMesh: Mesh cutoff (required, used) =    90.000    91.110 Ry
ExtMesh (bp) on 0 =    49 x    49 x    49 =      117649
PhiOnMesh: Number of (b)points on node 0 =                  729
PhiOnMesh: nlist on node 0 =                63414

stepf: Fermi-Dirac step function

siesta: Program's energy decomposition (eV):
siesta: Ebs     =       -49.769434
siesta: Eions   =       426.015714
siesta: Ena     =       154.658677
siesta: Ekin    =       108.777307
siesta: Enl     =        29.774608
siesta: Eso     =         0.000000
siesta: Eldau   =         0.000000
siesta: DEna    =         1.379825
siesta: DUscf   =         1.982373
siesta: DUext   =         0.000000
siesta: Exc     =       -68.135489
siesta: eta*DQ  =         0.000000
siesta: Emadel  =         0.000000
siesta: Emeta   =         0.000000
siesta: Emolmec =         0.000000
siesta: Ekinion =         0.000000
siesta: Eharris =      -179.698839
siesta: Etot    =      -197.578413
siesta: FreeEng =      -197.578413

        iscf     Eharris(eV)        E_KS(eV)     FreeEng(eV)     dDmax    Ef(eV) dHmax(eV)
   scf:    1     -179.698839     -197.578413     -197.578413  1.538554 -2.478906  0.330600
timer: Routine,Calls,Time,% = IterSCF        1       0.416  23.55
   scf:    2     -197.586400     -197.582523     -197.582523  0.051007 -2.233614  0.031358
   scf:    3     -197.582554     -197.582541     -197.582541  0.003385 -2.250008  0.002892
   scf:    4     -197.582544     -197.582542     -197.582542  0.000360 -2.250582  0.001878
   scf:    5     -197.582544     -197.582543     -197.582543  0.000657 -2.251758  0.000038
   scf:    6     -197.582543     -197.582543     -197.582543  0.000016 -2.251776  0.000008

SCF Convergence by DM+H criterion
max |DM_out - DM_in|         :     0.0000159813
max |H_out - H_in|      (eV) :     0.0000077249
SCF cycle converged after 6 iterations

Using DM_out to compute the final energy and forces
No. of atoms with KB's overlaping orbs in proc 0. Max # of overlaps:       2     161

siesta: E_KS(eV) =             -197.5825

siesta: E_KS - E_eggbox =      -197.5825

siesta: Atomic forces (eV/Ang):
----------------------------------------
   Tot    0.000001    0.000001    0.000001
----------------------------------------
   Max    0.000000
   Res    0.000000    sqrt( Sum f_i^2 / 3N )
----------------------------------------
   Max    0.000000    constrained

Stress-tensor-Voigt (kbar):     -451.84     -451.84     -451.84       -0.00       -0.00       -0.00
(Free)E + p*V (eV/cell)     -186.2948
Target enthalpy (eV/cell)     -197.5825

                     ====================================
                        Begin FC step =      1
                         displace atom 1
                         in direction 1 by -0.021167 Ang
                     ====================================

outcell: Unit cell vectors (Ang):
        2.715000    2.715000    0.000000
        0.000000    2.715000    2.715000
        2.715000    0.000000    2.715000

outcell: Cell vector modules (Ang)   :    3.839590    3.839590    3.839590
outcell: Cell angles (23,13,12) (deg):     60.0000     60.0000     60.0000
outcell: Cell volume (Ang**3)        :     40.0258
 Folding of H and S is implicitly performed
<dSpData1D:S at geom step 1
  <sparsity:sparsity for geom step 1
    nrows_g=26 nrows=26 sparsity=1.0000 nnzs=676, refcount: 7>
  <dData1D:(new from dSpData1D) n=676, refcount: 1>
refcount: 1>
new_DM -- step:     2
Re-using DM from previous geometries...
Number of DMs in history: 1
 DM extrapolation coefficients: 
1   1.00000
New DM after history re-use:
<dSpData2D:SpM extrapolated using coords
  <sparsity:sparsity for geom step 1
    nrows_g=26 nrows=26 sparsity=1.0000 nnzs=676, refcount: 8>
  <dData2D:(temp array for extrapolation) n=676 m=1, refcount: 1>
refcount: 1>
No. of atoms with KB's overlaping orbs in proc 0. Max # of overlaps:       2     161
New grid distribution:   1
           1       1:    9    1:    9    1:    9

InitMesh: MESH =    18 x    18 x    18 =        5832
InitMesh: (bp) =     9 x     9 x     9 =         729
InitMesh: Mesh cutoff (required, used) =    90.000    91.110 Ry
ExtMesh (bp) on 0 =    49 x    49 x    49 =      117649
PhiOnMesh: Number of (b)points on node 0 =                  729
PhiOnMesh: nlist on node 0 =                63290

        iscf     Eharris(eV)        E_KS(eV)     FreeEng(eV)     dDmax    Ef(eV) dHmax(eV)
   scf:    1     -197.569318     -197.575793     -197.575793  0.016179 -2.238176  0.037226
   scf:    2     -197.575995     -197.575907     -197.575907  0.005042 -2.239688  0.007918
   scf:    3     -197.575916     -197.575912     -197.575912  0.000809 -2.239413  0.000476
   scf:    4     -197.575912     -197.575912     -197.575912  0.000063 -2.239387  0.000177

SCF Convergence by DM+H criterion
max |DM_out - DM_in|         :     0.0000628289
max |H_out - H_in|      (eV) :     0.0001765286
SCF cycle converged after 4 iterations

Using DM_out to compute the final energy and forces
No. of atoms with KB's overlaping orbs in proc 0. Max # of overlaps:       2     161

siesta: E_KS(eV) =             -197.5759

siesta: Atomic forces (eV/Ang):
----------------------------------------
   Tot    0.015300    0.000000    0.000000
----------------------------------------
   Max    0.657438
   Res    0.375181    sqrt( Sum f_i^2 / 3N )
----------------------------------------
   Max    0.657438    constrained

Stress-tensor-Voigt (kbar):     -446.59     -447.73     -447.73       -0.00       19.53       -0.00
(Free)E + p*V (eV/cell)     -186.4003
Target enthalpy (eV/cell)     -197.5759

                     ====================================
                        Begin FC step =      2
                         displace atom 1
                         in direction 1 by  0.021167 Ang
                     ====================================

outcell: Unit cell vectors (Ang):
        2.715000    2.715000    0.000000
        0.000000    2.715000    2.715000
        2.715000    0.000000    2.715000

outcell: Cell vector modules (Ang)   :    3.839590    3.839590    3.839590
outcell: Cell angles (23,13,12) (deg):     60.0000     60.0000     60.0000
outcell: Cell volume (Ang**3)        :     40.0258
 Folding of H and S is implicitly performed
<dSpData1D:S at geom step 2
  <sparsity:sparsity for geom step 2
    nrows_g=26 nrows=26 sparsity=1.0000 nnzs=676, refcount: 7>
  <dData1D:(new from dSpData1D) n=676, refcount: 1>
refcount: 1>
new_DM -- step:     3
Re-using DM from previous geometries...
Number of DMs in history: 1
 DM extrapolation coefficients: 
1   1.00000
New DM after history re-use:
<dSpData2D:SpM extrapolated using coords
  <sparsity:sparsity for geom step 2
    nrows_g=26 nrows=26 sparsity=1.0000 nnzs=676, refcount: 8>
  <dData2D:(temp array for extrapolation) n=676 m=1, refcount: 1>
refcount: 1>
No. of atoms with KB's overlaping orbs in proc 0. Max # of overlaps:       2     161
New grid distribution:   1
           1       1:    9    1:    9    1:    9

InitMesh: MESH =    18 x    18 x    18 =        5832
InitMesh: (bp) =     9 x     9 x     9 =         729
InitMesh: Mesh cutoff (required, used) =    90.000    91.110 Ry
ExtMesh (bp) on 0 =    49 x    49 x    49 =      117649
PhiOnMesh: Number of (b)points on node 0 =                  729
PhiOnMesh: nlist on node 0 =                63354

        iscf     Eharris(eV)        E_KS(eV)     FreeEng(eV)     dDmax    Ef(eV) dHmax(eV)
   scf:    1     -197.569318     -197.575793     -197.575793  0.016179 -2.238176  0.037226
   scf:    2     -197.575995     -197.575907     -197.575907  0.005042 -2.239688  0.007918
   scf:    3     -197.575916     -197.575912     -197.575912  0.000809 -2.239413  0.000476
   scf:    4     -197.575912     -197.575912     -197.575912  0.000063 -2.239387  0.000177

SCF Convergence by DM+H criterion
max |DM_out - DM_in|         :     0.0000628287
max |H_out - H_in|      (eV) :     0.0001765292
SCF cycle converged after 4 iterations

Using DM_out to compute the final energy and forces
No. of atoms with KB's overlaping orbs in proc 0. Max # of overlaps:       2     161

siesta: E_KS(eV) =             -197.5759

siesta: Atomic forces (eV/Ang):
----------------------------------------
   Tot   -0.015299    0.000000    0.000000
----------------------------------------
   Max    0.657438
   Res    0.375181    sqrt( Sum f_i^2 / 3N )
----------------------------------------
   Max    0.657438    constrained

Stress-tensor-Voigt (kbar):     -446.59     -447.73     -447.73       -0.00      -19.53       -0.00
(Free)E + p*V (eV/cell)     -186.4003
Target enthalpy (eV/cell)     -197.5759

                     ====================================
                        Begin FC step =      3
                         displace atom 1
                         in direction 2 by -0.021167 Ang
                     ====================================

outcell: Unit cell vectors (Ang):
        2.715000    2.715000    0.000000
        0.000000    2.715000    2.715000
        2.715000    0.000000    2.715000

outcell: Cell vector modules (Ang)   :    3.839590    3.839590    3.839590
outcell: Cell angles (23,13,12) (deg):     60.0000     60.0000     60.0000
outcell: Cell volume (Ang**3)        :     40.0258
 Folding of H and S is implicitly performed
<dSpData1D:S at geom step 3
  <sparsity:sparsity for geom step 3
    nrows_g=26 nrows=26 sparsity=1.0000 nnzs=676, refcount: 7>
  <dData1D:(new from dSpData1D) n=676, refcount: 1>
refcount: 1>
new_DM -- step:     4
Re-using DM from previous geometries...
Number of DMs in history: 1
 DM extrapolation coefficients: 
1   1.00000
New DM after history re-use:
<dSpData2D:SpM extrapolated using coords
  <sparsity:sparsity for geom step 3
    nrows_g=26 nrows=26 sparsity=1.0000 nnzs=676, refcount: 8>
  <dData2D:(temp array for extrapolation) n=676 m=1, refcount: 1>
refcount: 1>
No. of atoms with KB's overlaping orbs in proc 0. Max # of overlaps:       2     161
New grid distribution:   1
           1       1:    9    1:    9    1:    9

InitMesh: MESH =    18 x    18 x    18 =        5832
InitMesh: (bp) =     9 x     9 x     9 =         729
InitMesh: Mesh cutoff (required, used) =    90.000    91.110 Ry
ExtMesh (bp) on 0 =    49 x    49 x    49 =      117649
PhiOnMesh: Number of (b)points on node 0 =                  729
PhiOnMesh: nlist on node 0 =                63290

        iscf     Eharris(eV)        E_KS(eV)     FreeEng(eV)     dDmax    Ef(eV) dHmax(eV)
   scf:    1     -197.569318     -197.575793     -197.575793  0.016179 -2.238176  0.037226
   scf:    2     -197.575995     -197.575907     -197.575907  0.005042 -2.239688  0.007918
   scf:    3     -197.575916     -197.575912     -197.575912  0.000809 -2.239413  0.000476
   scf:    4     -197.575912     -197.575912     -197.575912  0.000063 -2.239387  0.000177

SCF Convergence by DM+H criterion
max |DM_out - DM_in|         :     0.0000628289
max |H_out - H_in|      (eV) :     0.0001765286
SCF cycle converged after 4 iterations

Using DM_out to compute the final energy and forces
No. of atoms with KB's overlaping orbs in proc 0. Max # of overlaps:       2     161

siesta: E_KS(eV) =             -197.5759

siesta: Atomic forces (eV/Ang):
----------------------------------------
   Tot    0.000000    0.015300    0.000000
----------------------------------------
   Max    0.657438
   Res    0.375181    sqrt( Sum f_i^2 / 3N )
----------------------------------------
   Max    0.657438    constrained

Stress-tensor-Voigt (kbar):     -447.73     -446.59     -447.73       -0.00       -0.00       19.53
(Free)E + p*V (eV/cell)     -186.4003
Target enthalpy (eV/cell)     -197.5759

                     ====================================
                        Begin FC step =      4
                         displace atom 1
                         in direction 2 by  0.021167 Ang
                     ====================================

outcell: Unit cell vectors (Ang):
        2.715000    2.715000    0.000000
        0.000000    2.715000    2.715000
        2.715000    0.000000    2.715000

outcell: Cell vector modules (Ang)   :    3.839590    3.839590    3.839590
outcell: Cell angles (23,13,12) (deg):     60.0000     60.0000     60.0000
outcell: Cell volume (Ang**3)        :     40.0258
 Folding of H and S is implicitly performed
<dSpData1D:S at geom step 4
  <sparsity:sparsity for geom step 4
    nrows_g=26 nrows=26 sparsity=1.0000 nnzs=676, refcount: 7>
  <dData1D:(new from dSpData1D) n=676, refcount: 1>
refcount: 1>
new_DM -- step:     5
Re-using DM from previous geometries...
Number of DMs in history: 1
 DM extrapolation coefficients: 
1   1.00000
New DM after history re-use:
<dSpData2D:SpM extrapolated using coords
  <sparsity:sparsity for geom step 4
    nrows_g=26 nrows=26 sparsity=1.0000 nnzs=676, refcount: 8>
  <dData2D:(temp array for extrapolation) n=676 m=1, refcount: 1>
refcount: 1>
No. of atoms with KB's overlaping orbs in proc 0. Max # of overlaps:       2     161
New grid distribution:   1
           1       1:    9    1:    9    1:    9

InitMesh: MESH =    18 x    18 x    18 =        5832
InitMesh: (bp) =     9 x     9 x     9 =         729
InitMesh: Mesh cutoff (required, used) =    90.000    91.110 Ry
ExtMesh (bp) on 0 =    49 x    49 x    49 =      117649
PhiOnMesh: Number of (b)points on node 0 =                  729
PhiOnMesh: nlist on node 0 =                63354

        iscf     Eharris(eV)        E_KS(eV)     FreeEng(eV)     dDmax    Ef(eV) dHmax(eV)
   scf:    1     -197.569318     -197.575793     -197.575793  0.016179 -2.238176  0.037226
   scf:    2     -197.575995     -197.575907     -197.575907  0.005042 -2.239688  0.007918
   scf:    3     -197.575916     -197.575912     -197.575912  0.000809 -2.239413  0.000476
   scf:    4     -197.575912     -197.575912     -197.575912  0.000063 -2.239387  0.000177

SCF Convergence by DM+H criterion
max |DM_out - DM_in|         :     0.0000628287
max |H_out - H_in|      (eV) :     0.0001765292
SCF cycle converged after 4 iterations

Using DM_out to compute the final energy and forces
No. of atoms with KB's overlaping orbs in proc 0. Max # of overlaps:       2     161

siesta: E_KS(eV) =             -197.5759

siesta: Atomic forces (eV/Ang):
----------------------------------------
   Tot    0.000000   -0.015299    0.000000
----------------------------------------
   Max    0.657438
   Res    0.375181    sqrt( Sum f_i^2 / 3N )
----------------------------------------
   Max    0.657438    constrained

Stress-tensor-Voigt (kbar):     -447.73     -446.59     -447.73       -0.00       -0.00      -19.53
(Free)E + p*V (eV/cell)     -186.4003
Target enthalpy (eV/cell)     -197.5759

                     ====================================
                        Begin FC step =      5
                         displace atom 1
                         in direction 3 by -0.021167 Ang
                     ====================================

outcell: Unit cell vectors (Ang):
        2.715000    2.715000    0.000000
        0.000000    2.715000    2.715000
        2.715000    0.000000    2.715000

outcell: Cell vector modules (Ang)   :    3.839590    3.839590    3.839590
outcell: Cell angles (23,13,12) (deg):     60.0000     60.0000     60.0000
outcell: Cell volume (Ang**3)        :     40.0258
 Folding of H and S is implicitly performed
<dSpData1D:S at geom step 5
  <sparsity:sparsity for geom step 5
    nrows_g=26 nrows=26 sparsity=1.0000 nnzs=676, refcount: 7>
  <dData1D:(new from dSpData1D) n=676, refcount: 1>
refcount: 1>
new_DM -- step:     6
Re-using DM from previous geometries...
Number of DMs in history: 1
 DM extrapolation coefficients: 
1   1.00000
New DM after history re-use:
<dSpData2D:SpM extrapolated using coords
  <sparsity:sparsity for geom step 5
    nrows_g=26 nrows=26 sparsity=1.0000 nnzs=676, refcount: 8>
  <dData2D:(temp array for extrapolation) n=676 m=1, refcount: 1>
refcount: 1>
No. of atoms with KB's overlaping orbs in proc 0. Max # of overlaps:       2     161
New grid distribution:   1
           1       1:    9    1:    9    1:    9

InitMesh: MESH =    18 x    18 x    18 =        5832
InitMesh: (bp) =     9 x     9 x     9 =         729
InitMesh: Mesh cutoff (required, used) =    90.000    91.110 Ry
ExtMesh (bp) on 0 =    49 x    49 x    49 =      117649
PhiOnMesh: Number of (b)points on node 0 =                  729
PhiOnMesh: nlist on node 0 =                63290

        iscf     Eharris(eV)        E_KS(eV)     FreeEng(eV)     dDmax    Ef(eV) dHmax(eV)
   scf:    1     -197.569318     -197.575793     -197.575793  0.016179 -2.238176  0.037226
   scf:    2     -197.575995     -197.575907     -197.575907  0.005042 -2.239689  0.007918
   scf:    3     -197.575916     -197.575912     -197.575912  0.000809 -2.239413  0.000476
   scf:    4     -197.575912     -197.575912     -197.575912  0.000063 -2.239387  0.000177

SCF Convergence by DM+H criterion
max |DM_out - DM_in|         :     0.0000628289
max |H_out - H_in|      (eV) :     0.0001765287
SCF cycle converged after 4 iterations

Using DM_out to compute the final energy and forces
No. of atoms with KB's overlaping orbs in proc 0. Max # of overlaps:       2     161

siesta: E_KS(eV) =             -197.5759

siesta: Atomic forces (eV/Ang):
----------------------------------------
   Tot    0.000000    0.000000    0.015300
----------------------------------------
   Max    0.657438
   Res    0.375181    sqrt( Sum f_i^2 / 3N )
----------------------------------------
   Max    0.657438    constrained

Stress-tensor-Voigt (kbar):     -447.73     -447.73     -446.59       19.53       -0.00       -0.00
(Free)E + p*V (eV/cell)     -186.4003
Target enthalpy (eV/cell)     -197.5759

                     ====================================
                        Begin FC step =      6
                         displace atom 1
                         in direction 3 by  0.021167 Ang
                     ====================================

outcell: Unit cell vectors (Ang):
        2.715000    2.715000    0.000000
        0.000000    2.715000    2.715000
        2.715000    0.000000    2.715000

outcell: Cell vector modules (Ang)   :    3.839590    3.839590    3.839590
outcell: Cell angles (23,13,12) (deg):     60.0000     60.0000     60.0000
outcell: Cell volume (Ang**3)        :     40.0258
 Folding of H and S is implicitly performed
<dSpData1D:S at geom step 6
  <sparsity:sparsity for geom step 6
    nrows_g=26 nrows=26 sparsity=1.0000 nnzs=676, refcount: 7>
  <dData1D:(new from dSpData1D) n=676, refcount: 1>
refcount: 1>
new_DM -- step:     7
Re-using DM from previous geometries...
Number of DMs in history: 1
 DM extrapolation coefficients: 
1   1.00000
New DM after history re-use:
<dSpData2D:SpM extrapolated using coords
  <sparsity:sparsity for geom step 6
    nrows_g=26 nrows=26 sparsity=1.0000 nnzs=676, refcount: 8>
  <dData2D:(temp array for extrapolation) n=676 m=1, refcount: 1>
refcount: 1>
No. of atoms with KB's overlaping orbs in proc 0. Max # of overlaps:       2     161
New grid distribution:   1
           1       1:    9    1:    9    1:    9

InitMesh: MESH =    18 x    18 x    18 =        5832
InitMesh: (bp) =     9 x     9 x     9 =         729
InitMesh: Mesh cutoff (required, used) =    90.000    91.110 Ry
ExtMesh (bp) on 0 =    49 x    49 x    49 =      117649
PhiOnMesh: Number of (b)points on node 0 =                  729
PhiOnMesh: nlist on node 0 =                63354

        iscf     Eharris(eV)        E_KS(eV)     FreeEng(eV)     dDmax    Ef(eV) dHmax(eV)
   scf:    1     -197.569318     -197.575793     -197.575793  0.016179 -2.238176  0.037226
   scf:    2     -197.575995     -197.575907     -197.575907  0.005042 -2.239689  0.007918
   scf:    3     -197.575916     -197.575912     -197.575912  0.000809 -2.239413  0.000476
   scf:    4     -197.575912     -197.575912     -197.575912  0.000063 -2.239387  0.000177

SCF Convergence by DM+H criterion
max |DM_out - DM_in|         :     0.0000628286
max |H_out - H_in|      (eV) :     0.0001765293
SCF cycle converged after 4 iterations

Using DM_out to compute the final energy and forces
No. of atoms with KB's overlaping orbs in proc 0. Max # of overlaps:       2     161

siesta: E_KS(eV) =             -197.5759

siesta: Atomic forces (eV/Ang):
----------------------------------------
   Tot    0.000000    0.000000   -0.015299
----------------------------------------
   Max    0.657438
   Res    0.375181    sqrt( Sum f_i^2 / 3N )
----------------------------------------
   Max    0.657438    constrained

Stress-tensor-Voigt (kbar):     -447.73     -447.73     -446.59      -19.53       -0.00       -0.00
(Free)E + p*V (eV/cell)     -186.4003
Target enthalpy (eV/cell)     -197.5759

                     ====================================
                        Begin FC step =      7
                         displace atom 2
                         in direction 1 by -0.021167 Ang
                     ====================================

outcell: Unit cell vectors (Ang):
        2.715000    2.715000    0.000000
        0.000000    2.715000    2.715000
        2.715000    0.000000    2.715000

outcell: Cell vector modules (Ang)   :    3.839590    3.839590    3.839590
outcell: Cell angles (23,13,12) (deg):     60.0000     60.0000     60.0000
outcell: Cell volume (Ang**3)        :     40.0258
 Folding of H and S is implicitly performed
<dSpData1D:S at geom step 7
  <sparsity:sparsity for geom step 7
    nrows_g=26 nrows=26 sparsity=1.0000 nnzs=676, refcount: 7>
  <dData1D:(new from dSpData1D) n=676, refcount: 1>
refcount: 1>
new_DM -- step:     8
Re-using DM from previous geometries...
Number of DMs in history: 1
 DM extrapolation coefficients: 
1   1.00000
New DM after history re-use:
<dSpData2D:SpM extrapolated using coords
  <sparsity:sparsity for geom step 7
    nrows_g=26 nrows=26 sparsity=1.0000 nnzs=676, refcount: 8>
  <dData2D:(temp array for extrapolation) n=676 m=1, refcount: 1>
refcount: 1>
No. of atoms with KB's overlaping orbs in proc 0. Max # of overlaps:       2     161
New grid distribution:   1
           1       1:    9    1:    9    1:    9

InitMesh: MESH =    18 x    18 x    18 =        5832
InitMesh: (bp) =     9 x     9 x     9 =         729
InitMesh: Mesh cutoff (required, used) =    90.000    91.110 Ry
ExtMesh (bp) on 0 =    49 x    49 x    49 =      117649
PhiOnMesh: Number of (b)points on node 0 =                  729
PhiOnMesh: nlist on node 0 =                63249

        iscf     Eharris(eV)        E_KS(eV)     FreeEng(eV)     dDmax    Ef(eV) dHmax(eV)
   scf:    1     -197.568501     -197.575023     -197.575023  0.010491 -2.235739  0.036992
   scf:    2     -197.575227     -197.575139     -197.575139  0.005053 -2.237075  0.007446
   scf:    3     -197.575147     -197.575144     -197.575144  0.000787 -2.236820  0.000459
   scf:    4     -197.575144     -197.575144     -197.575144  0.000045 -2.236779  0.000156

SCF Convergence by DM+H criterion
max |DM_out - DM_in|         :     0.0000448553
max |H_out - H_in|      (eV) :     0.0001562527
SCF cycle converged after 4 iterations

Using DM_out to compute the final energy and forces
No. of atoms with KB's overlaping orbs in proc 0. Max # of overlaps:       2     161

siesta: E_KS(eV) =             -197.5751

siesta: Atomic forces (eV/Ang):
----------------------------------------
   Tot    0.001294    0.000000    0.000000
----------------------------------------
   Max    0.641629
   Res    0.370071    sqrt( Sum f_i^2 / 3N )
----------------------------------------
   Max    0.641629    constrained

Stress-tensor-Voigt (kbar):     -460.56     -464.15     -464.15       -0.00      -14.96       -0.00
(Free)E + p*V (eV/cell)     -186.0096
Target enthalpy (eV/cell)     -197.5751

                     ====================================
                        Begin FC step =      8
                         displace atom 2
                         in direction 1 by  0.021167 Ang
                     ====================================

outcell: Unit cell vectors (Ang):
        2.715000    2.715000    0.000000
        0.000000    2.715000    2.715000
        2.715000    0.000000    2.715000

outcell: Cell vector modules (Ang)   :    3.839590    3.839590    3.839590
outcell: Cell angles (23,13,12) (deg):     60.0000     60.0000     60.0000
outcell: Cell volume (Ang**3)        :     40.0258
 Folding of H and S is implicitly performed
<dSpData1D:S at geom step 8
  <sparsity:sparsity for geom step 8
    nrows_g=26 nrows=26 sparsity=1.0000 nnzs=676, refcount: 7>
  <dData1D:(new from dSpData1D) n=676, refcount: 1>
refcount: 1>
new_DM -- step:     9
Re-using DM from previous geometries...
Number of DMs in history: 1
 DM extrapolation coefficients: 
1   1.00000
New DM after history re-use:
<dSpData2D:SpM extrapolated using coords
  <sparsity:sparsity for geom step 8
    nrows_g=26 nrows=26 sparsity=1.0000 nnzs=676, refcount: 8>
  <dData2D:(temp array for extrapolation) n=676 m=1, refcount: 1>
refcount: 1>
No. of atoms with KB's overlaping orbs in proc 0. Max # of overlaps:       2     161
New grid distribution:   1
           1       1:    9    1:    9    1:    9

InitMesh: MESH =    18 x    18 x    18 =        5832
InitMesh: (bp) =     9 x     9 x     9 =         729
InitMesh: Mesh cutoff (required, used) =    90.000    91.110 Ry
ExtMesh (bp) on 0 =    49 x    49 x    49 =      117649
PhiOnMesh: Number of (b)points on node 0 =                  729
PhiOnMesh: nlist on node 0 =                63249

        iscf     Eharris(eV)        E_KS(eV)     FreeEng(eV)     dDmax    Ef(eV) dHmax(eV)
   scf:    1     -197.568501     -197.575023     -197.575023  0.010491 -2.235739  0.036992
   scf:    2     -197.575227     -197.575139     -197.575139  0.005053 -2.237075  0.007446
   scf:    3     -197.575148     -197.575144     -197.575144  0.000787 -2.236820  0.000459
   scf:    4     -197.575144     -197.575144     -197.575144  0.000045 -2.236779  0.000156

SCF Convergence by DM+H criterion
max |DM_out - DM_in|         :     0.0000448548
max |H_out - H_in|      (eV) :     0.0001562561
SCF cycle converged after 4 iterations

Using DM_out to compute the final energy and forces
No. of atoms with KB's overlaping orbs in proc 0. Max # of overlaps:       2     161

siesta: E_KS(eV) =             -197.5751

siesta: Atomic forces (eV/Ang):
----------------------------------------
   Tot   -0.001293    0.000001    0.000001
----------------------------------------
   Max    0.641628
   Res    0.370071    sqrt( Sum f_i^2 / 3N )
----------------------------------------
   Max    0.641628    constrained

Stress-tensor-Voigt (kbar):     -460.56     -464.15     -464.15       -0.00       14.96       -0.00
(Free)E + p*V (eV/cell)     -186.0096
Target enthalpy (eV/cell)     -197.5751

                     ====================================
                        Begin FC step =      9
                         displace atom 2
                         in direction 2 by -0.021167 Ang
                     ====================================

outcell: Unit cell vectors (Ang):
        2.715000    2.715000    0.000000
        0.000000    2.715000    2.715000
        2.715000    0.000000    2.715000

outcell: Cell vector modules (Ang)   :    3.839590    3.839590    3.839590
outcell: Cell angles (23,13,12) (deg):     60.0000     60.0000     60.0000
outcell: Cell volume (Ang**3)        :     40.0258
 Folding of H and S is implicitly performed
<dSpData1D:S at geom step 9
  <sparsity:sparsity for geom step 9
    nrows_g=26 nrows=26 sparsity=1.0000 nnzs=676, refcount: 7>
  <dData1D:(new from dSpData1D) n=676, refcount: 1>
refcount: 1>
new_DM -- step:    10
Re-using DM from previous geometries...
Number of DMs in history: 1
 DM extrapolation coefficients: 
1   1.00000
New DM after history re-use:
<dSpData2D:SpM extrapolated using coords
  <sparsity:sparsity for geom step 9
    nrows_g=26 nrows=26 sparsity=1.0000 nnzs=676, refcount: 8>
  <dData2D:(temp array for extrapolation) n=676 m=1, refcount: 1>
refcount: 1>
No. of atoms with KB's overlaping orbs in proc 0. Max # of overlaps:       2     161
New grid distribution:   1
           1       1:    9    1:    9    1:    9

InitMesh: MESH =    18 x    18 x    18 =        5832
InitMesh: (bp) =     9 x     9 x     9 =         729
InitMesh: Mesh cutoff (required, used) =    90.000    91.110 Ry
ExtMesh (bp) on 0 =    49 x    49 x    49 =      117649
PhiOnMesh: Number of (b)points on node 0 =                  729
PhiOnMesh: nlist on node 0 =                63249

        iscf     Eharris(eV)        E_KS(eV)     FreeEng(eV)     dDmax    Ef(eV) dHmax(eV)
   scf:    1     -197.568501     -197.575023     -197.575023  0.010491 -2.235739  0.036992
   scf:    2     -197.575227     -197.575139     -197.575139  0.005053 -2.237075  0.007446
   scf:    3     -197.575147     -197.575144     -197.575144  0.000787 -2.236820  0.000459
   scf:    4     -197.575144     -197.575144     -197.575144  0.000045 -2.236779  0.000156

SCF Convergence by DM+H criterion
max |DM_out - DM_in|         :     0.0000448553
max |H_out - H_in|      (eV) :     0.0001562527
SCF cycle converged after 4 iterations

Using DM_out to compute the final energy and forces
No. of atoms with KB's overlaping orbs in proc 0. Max # of overlaps:       2     161

siesta: E_KS(eV) =             -197.5751

siesta: Atomic forces (eV/Ang):
----------------------------------------
   Tot    0.000000    0.001294    0.000000
----------------------------------------
   Max    0.641629
   Res    0.370071    sqrt( Sum f_i^2 / 3N )
----------------------------------------
   Max    0.641629    constrained

Stress-tensor-Voigt (kbar):     -464.15     -460.56     -464.15       -0.00       -0.00      -14.96
(Free)E + p*V (eV/cell)     -186.0096
Target enthalpy (eV/cell)     -197.5751

                     ====================================
                        Begin FC step =     10
                         displace atom 2
                         in direction 2 by  0.021167 Ang
                     ====================================

outcell: Unit cell vectors (Ang):
        2.715000    2.715000    0.000000
        0.000000    2.715000    2.715000
        2.715000    0.000000    2.715000

outcell: Cell vector modules (Ang)   :    3.839590    3.839590    3.839590
outcell: Cell angles (23,13,12) (deg):     60.0000     60.0000     60.0000
outcell: Cell volume (Ang**3)        :     40.0258
 Folding of H and S is implicitly performed
<dSpData1D:S at geom step 10
  <sparsity:sparsity for geom step 10
    nrows_g=26 nrows=26 sparsity=1.0000 nnzs=676, refcount: 7>
  <dData1D:(new from dSpData1D) n=676, refcount: 1>
refcount: 1>
new_DM -- step:    11
Re-using DM from previous geometries...
Number of DMs in history: 1
 DM extrapolation coefficients: 
1   1.00000
New DM after history re-use:
<dSpData2D:SpM extrapolated using coords
  <sparsity:sparsity for geom step 10
    nrows_g=26 nrows=26 sparsity=1.0000 nnzs=676, refcount: 8>
  <dData2D:(temp array for extrapolation) n=676 m=1, refcount: 1>
refcount: 1>
No. of atoms with KB's overlaping orbs in proc 0. Max # of overlaps:       2     161
New grid distribution:   1
           1       1:    9    1:    9    1:    9

InitMesh: MESH =    18 x    18 x    18 =        5832
InitMesh: (bp) =     9 x     9 x     9 =         729
InitMesh: Mesh cutoff (required, used) =    90.000    91.110 Ry
ExtMesh (bp) on 0 =    49 x    49 x    49 =      117649
PhiOnMesh: Number of (b)points on node 0 =                  729
PhiOnMesh: nlist on node 0 =                63249

        iscf     Eharris(eV)        E_KS(eV)     FreeEng(eV)     dDmax    Ef(eV) dHmax(eV)
   scf:    1     -197.568501     -197.575023     -197.575023  0.010491 -2.235739  0.036992
   scf:    2     -197.575227     -197.575139     -197.575139  0.005053 -2.237075  0.007446
   scf:    3     -197.575148     -197.575144     -197.575144  0.000787 -2.236820  0.000459
   scf:    4     -197.575144     -197.575144     -197.575144  0.000045 -2.236779  0.000156

SCF Convergence by DM+H criterion
max |DM_out - DM_in|         :     0.0000448548
max |H_out - H_in|      (eV) :     0.0001562561
SCF cycle converged after 4 iterations

Using DM_out to compute the final energy and forces
No. of atoms with KB's overlaping orbs in proc 0. Max # of overlaps:       2     161

siesta: E_KS(eV) =             -197.5751

siesta: Atomic forces (eV/Ang):
----------------------------------------
   Tot    0.000001   -0.001293    0.000001
----------------------------------------
   Max    0.641628
   Res    0.370071    sqrt( Sum f_i^2 / 3N )
----------------------------------------
   Max    0.641628    constrained

Stress-tensor-Voigt (kbar):     -464.15     -460.56     -464.15       -0.00       -0.00       14.96
(Free)E + p*V (eV/cell)     -186.0096
Target enthalpy (eV/cell)     -197.5751

                     ====================================
                        Begin FC step =     11
                         displace atom 2
                         in direction 3 by -0.021167 Ang
                     ====================================

outcell: Unit cell vectors (Ang):
        2.715000    2.715000    0.000000
        0.000000    2.715000    2.715000
        2.715000    0.000000    2.715000

outcell: Cell vector modules (Ang)   :    3.839590    3.839590    3.839590
outcell: Cell angles (23,13,12) (deg):     60.0000     60.0000     60.0000
outcell: Cell volume (Ang**3)        :     40.0258
 Folding of H and S is implicitly performed
<dSpData1D:S at geom step 11
  <sparsity:sparsity for geom step 11
    nrows_g=26 nrows=26 sparsity=1.0000 nnzs=676, refcount: 7>
  <dData1D:(new from dSpData1D) n=676, refcount: 1>
refcount: 1>
new_DM -- step:    12
Re-using DM from previous geometries...
Number of DMs in history: 1
 DM extrapolation coefficients: 
1   1.00000
New DM after history re-use:
<dSpData2D:SpM extrapolated using coords
  <sparsity:sparsity for geom step 11
    nrows_g=26 nrows=26 sparsity=1.0000 nnzs=676, refcount: 8>
  <dData2D:(temp array for extrapolation) n=676 m=1, refcount: 1>
refcount: 1>
No. of atoms with KB's overlaping orbs in proc 0. Max # of overlaps:       2     161
New grid distribution:   1
           1       1:    9    1:    9    1:    9

InitMesh: MESH =    18 x    18 x    18 =        5832
InitMesh: (bp) =     9 x     9 x     9 =         729
InitMesh: Mesh cutoff (required, used) =    90.000    91.110 Ry
ExtMesh (bp) on 0 =    49 x    49 x    49 =      117649
PhiOnMesh: Number of (b)points on node 0 =                  729
PhiOnMesh: nlist on node 0 =                63249

        iscf     Eharris(eV)        E_KS(eV)     FreeEng(eV)     dDmax    Ef(eV) dHmax(eV)
   scf:    1     -197.568501     -197.575023     -197.575023  0.010491 -2.235739  0.036992
   scf:    2     -197.575227     -197.575139     -197.575139  0.005053 -2.237076  0.007446
   scf:    3     -197.575147     -197.575144     -197.575144  0.000787 -2.236820  0.000459
   scf:    4     -197.575144     -197.575144     -197.575144  0.000045 -2.236779  0.000156

SCF Convergence by DM+H criterion
max |DM_out - DM_in|         :     0.0000448551
max |H_out - H_in|      (eV) :     0.0001562525
SCF cycle converged after 4 iterations

Using DM_out to compute the final energy and forces
No. of atoms with KB's overlaping orbs in proc 0. Max # of overlaps:       2     161

siesta: E_KS(eV) =             -197.5751

siesta: Atomic forces (eV/Ang):
----------------------------------------
   Tot    0.000000    0.000000    0.001294
----------------------------------------
   Max    0.641629
   Res    0.370071    sqrt( Sum f_i^2 / 3N )
----------------------------------------
   Max    0.641629    constrained

Stress-tensor-Voigt (kbar):     -464.15     -464.15     -460.56      -14.96       -0.00       -0.00
(Free)E + p*V (eV/cell)     -186.0096
Target enthalpy (eV/cell)     -197.5751

                     ====================================
                        Begin FC step =     12
                         displace atom 2
                         in direction 3 by  0.021167 Ang
                     ====================================

outcell: Unit cell vectors (Ang):
        2.715000    2.715000    0.000000
        0.000000    2.715000    2.715000
        2.715000    0.000000    2.715000

outcell: Cell vector modules (Ang)   :    3.839590    3.839590    3.839590
outcell: Cell angles (23,13,12) (deg):     60.0000     60.0000     60.0000
outcell: Cell volume (Ang**3)        :     40.0258
 Folding of H and S is implicitly performed
<dSpData1D:S at geom step 12
  <sparsity:sparsity for geom step 12
    nrows_g=26 nrows=26 sparsity=1.0000 nnzs=676, refcount: 7>
  <dData1D:(new from dSpData1D) n=676, refcount: 1>
refcount: 1>
new_DM -- step:    13
Re-using DM from previous geometries...
Number of DMs in history: 1
 DM extrapolation coefficients: 
1   1.00000
New DM after history re-use:
<dSpData2D:SpM extrapolated using coords
  <sparsity:sparsity for geom step 12
    nrows_g=26 nrows=26 sparsity=1.0000 nnzs=676, refcount: 8>
  <dData2D:(temp array for extrapolation) n=676 m=1, refcount: 1>
refcount: 1>
No. of atoms with KB's overlaping orbs in proc 0. Max # of overlaps:       2     161
New grid distribution:   1
           1       1:    9    1:    9    1:    9

InitMesh: MESH =    18 x    18 x    18 =        5832
InitMesh: (bp) =     9 x     9 x     9 =         729
InitMesh: Mesh cutoff (required, used) =    90.000    91.110 Ry
ExtMesh (bp) on 0 =    49 x    49 x    49 =      117649
PhiOnMesh: Number of (b)points on node 0 =                  729
PhiOnMesh: nlist on node 0 =                63249

        iscf     Eharris(eV)        E_KS(eV)     FreeEng(eV)     dDmax    Ef(eV) dHmax(eV)
   scf:    1     -197.568501     -197.575023     -197.575023  0.010491 -2.235739  0.036992
   scf:    2     -197.575227     -197.575139     -197.575139  0.005053 -2.237076  0.007446
   scf:    3     -197.575148     -197.575144     -197.575144  0.000787 -2.236820  0.000459
   scf:    4     -197.575144     -197.575144     -197.575144  0.000045 -2.236779  0.000156

SCF Convergence by DM+H criterion
max |DM_out - DM_in|         :     0.0000448547
max |H_out - H_in|      (eV) :     0.0001562560
SCF cycle converged after 4 iterations

Using DM_out to compute the final energy and forces
No. of atoms with KB's overlaping orbs in proc 0. Max # of overlaps:       2     161

siesta: E_KS(eV) =             -197.5751

siesta: Atomic forces (eV/Ang):
----------------------------------------
   Tot    0.000001    0.000001   -0.001293
----------------------------------------
   Max    0.641628
   Res    0.370071    sqrt( Sum f_i^2 / 3N )
----------------------------------------
   Max    0.641628    constrained

Stress-tensor-Voigt (kbar):     -464.15     -464.15     -460.56       14.96       -0.00       -0.00
(Free)E + p*V (eV/cell)     -186.0096
Target enthalpy (eV/cell)     -197.5751

siesta: Program's energy decomposition (eV):
siesta: Ebs     =       -49.949554
siesta: Eions   =       426.015714
siesta: Ena     =       154.657480
siesta: Ekin    =       108.539426
siesta: Enl     =        29.728214
siesta: Eso     =         0.000000
siesta: Eldau   =         0.000000
siesta: DEna    =         1.625510
siesta: DUscf   =         1.946079
siesta: DUext   =         0.000000
siesta: Exc     =       -68.056137
siesta: eta*DQ  =         0.000000
siesta: Emadel  =         0.000000
siesta: Emeta   =         0.000000
siesta: Emolmec =         0.000000
siesta: Ekinion =         0.000000
siesta: Eharris =      -197.575144
siesta: Etot    =      -197.575144
siesta: FreeEng =      -197.575144

siesta: Final energy (eV):
siesta:  Band Struct. =     -49.949554
siesta:       Kinetic =     108.539426
siesta:       Hartree =      21.598511
siesta:       Eldau   =       0.000000
siesta:       Eso     =       0.000000
siesta:    Ext. field =       0.000000
siesta:   Exch.-corr. =     -68.056137
siesta:  Ion-electron =    -112.917653
siesta:       Ion-ion =    -146.739290
siesta:       Ekinion =       0.000000
siesta:         Total =    -197.575144
siesta:         Fermi =      -2.236779

siesta: Atomic forces (eV/Ang):
siesta:      1    0.000000    0.000000    0.640336
siesta:      2    0.000001    0.000001   -0.641628
siesta: ----------------------------------------
siesta:    Tot    0.000001    0.000001   -0.001293

siesta: Stress tensor (static) (eV/Ang**3):
siesta:    -0.289699    0.009334   -0.000000
siesta:     0.009334   -0.289699   -0.000000
siesta:    -0.000000   -0.000000   -0.287457

siesta: Cell volume =         40.025752 Ang**3

siesta: Pressure (static):
siesta:                Solid            Molecule  Units
siesta:           0.00314705          0.00322721  Ry/Bohr**3
siesta:           0.28895163          0.29631105  eV/Ang**3
siesta:         462.95654650        474.74777842  kBar
(Free)E+ p_basis*V_orbitals  =        -196.364470
(Free)Eharris+ p_basis*V_orbitals  =        -196.364470

timer: Elapsed wall time (sec) =      33.437
timer: CPU execution times (sec):

Routine            Calls   Time/call    Tot.time        %
siesta                 1      33.406      33.406   100.00
Setup                  1       0.163       0.163     0.49
bands                  1       0.000       0.000     0.00
KSV_init               1       0.000       0.000     0.00
IterGeom              13       2.557      33.242    99.51
state_init            13       0.039       0.512     1.53
hsparse               13       0.006       0.076     0.23
overlap               13       0.033       0.426     1.28
Setup_H0              13       0.271       3.518    10.53
naefs                 26       0.000       0.003     0.01
MolMec                26       0.000       0.000     0.00
kinefsm               26       0.025       0.653     1.95
nlefsm                26       0.064       1.672     5.01
DHSCF_Init            13       0.170       2.212     6.62
DHSCF1                13       0.016       0.214     0.64
INITMESH              13       0.000       0.000     0.00
DHSCF2                13       0.154       1.998     5.98
REMESH                13       0.019       0.247     0.74
REORD                264       0.000       0.005     0.01
PHION                 13       0.122       1.587     4.75
COMM_BSC             199       0.000       0.004     0.01
POISON                93       0.001       0.061     0.18
fft                  186       0.000       0.039     0.12
IterSCF               54       0.257      13.895    41.59
setup_H               67       0.207      13.852    41.47
DHSCF                 80       0.349      27.916    83.57
DHSCF3                80       0.207      16.541    49.52
rhoofd                80       0.100       7.967    23.85
CellXC                80       0.002       0.191     0.57
cellXC                80       0.002       0.191     0.57
vmat                  80       0.104       8.312    24.88
compute_dm            54       0.001       0.036     0.11
diagon                54       0.000       0.024     0.07
r-eigvec              54       0.000       0.019     0.06
r-buildHS             54       0.000       0.000     0.00
rdiag                 54       0.000       0.019     0.06
rdiag1                54       0.000       0.001     0.00
rdiag2                54       0.000       0.002     0.00
rdiag3                54       0.000       0.014     0.04
rdiag4                54       0.000       0.001     0.00
r-buildD              54       0.000       0.004     0.01
MIXER                 41       0.000       0.002     0.01
PostSCF               13       1.178      15.313    45.84
DHSCF4                13       0.875      11.375    34.05
dfscf                 13       0.865      11.240    33.65
overfsm               13       0.017       0.223     0.67
state_analysis        13       0.000       0.004     0.01
siesta_move           13       0.000       0.001     0.00
Analysis               1       0.001       0.001     0.00
optical                1       0.000       0.000     0.00
  
>> End of run:   6-NOV-2017  17:35:30
Job completed
