Siesta Version  : trunk-755
Architecture    : x86_64-unknown-linux
Compiler version: GNU Fortran (GCC) 4.9.3
Compiler flags  : mpif90 -O3 -msse4.2 -m64 -fPIC -ftree-vectorize -funroll-loops -fprefetch-looop-arrays -fno-second-underscore -floop-block -fgraphite -Wall -I/home/pablolopez/Programs/bigdft/build_solver/install/include -L/home/pablolopez/Programs/bigdft/build_solver/install/lib -lPSolver-1 -lfutile-1 -llapack -lblas -ldl -lrt -lyaml
PP flags        : -DCDF -DNCDF -DNCDF_4 -DNCDF_PARALLEL -DMPI -DUSE_GEMM3M
Libraries       : libncdf.a libfdict.a -Wl,--start-group /home/pedro/local/opt/openblas/0.2.14//g4.9.3/lib/libopenblas.a /home/pedro/local/opt/lapack/rev1558/g4.9.3/lib/liblapack.a /home/pedro/local/opt/scalapack/rev200/ompi1.8.5-g4.9.3/lib/libscalapack.a -Wl,--end-group -lpthread -lm -L/home/pedro/local/opt/netcdf-fortran/4.4.2/ompi1.8.5-g4.9.3/lib -lnetcdff -L/home/pedro/local/opt/hdf5/1.8.14/ompi1.8.5-g4.9.3/lib -lhdf5hl_fortran -lhdf5_fortran -lhdf5_hl -lhdf5 -L/home/pedro/local/opt/zlib/1.2.8/g4.9.3/lib -lz -L/home/pedro/local/opt/openmpi/1.8.5/g4.9.3/lib -lmpi libncdf.a libfdict.a -I/home/pablolopez/Programs/bigdft/build_solver/install/include -L/home/pablolopez/Programs/bigdft/build_solver/install/lib -lPSolver-1 -lfutile-1 -ldl -lrt -lyaml -llapack -lblas
Directory       : /home/pablolopez/Siesta/Psolver/Periodic/3D_Ge_H
PARALLEL version
GEMM3M support
NetCDF support
NetCDF-4 support
NetCDF-4 MPI-IO support

* Running on 20 nodes in parallel
>> Start of run:  24-FEB-2020  16:04:46

                           ***********************       
                           *  WELCOME TO SIESTA  *       
                           ***********************       

reinit: Reading from standard input
reinit: Dumped input in INPUT_TMP.40985
************************** Dump of input data file ****************************
#
################## GENERAL SETINGS #####################################
#
        SystemName          Germanium
        SystemLabel         md
        NumberOfAtoms       9
        NumberOfSpecies     2
#
################## TYPE OF RUN #########################################
#
#        UseBIGDFTsolver .true.
        #MD.UseSaveXV       T
#        MD.TypeOfRun          Anneal
#        MD.AnnealOption       Temperature
#        MD.InitialTemperature 100 K
#        MD.TargetTemperature 600 K
#        MD.TauRelax       20 fs
#        MD.Initial.Time.Step      1
#        MD.Final.Time.Step        100
#        MD.Length.Time.Step       0.2 fs
#
################## WRITING #############################################
#
        WriteCoorStep   .true.
        WriteForces     .true.
        WriteMDHistory  .true.
        WriteCoorXmol   .true.
        WriteMDXmol   	.true.
	SaveRho		.true.
#
################## ACCURACY ############################################
#
        xc.functional LDA
        xc.authors CA
#       Atom.Ignore.Ghosts
        MeshCutoff  150 Ry
#
#        Psolver.verbose   .true.
# Basis:
        PAO.BasisSize SZ
        #PAO.EnergyShift 20 meV
# SCF:
	SolutionMethod       Diagon
	MaxSCFIterations       1000
	DM.MixingWeight        0.2
	DM.NumberPulay           3
	DM.Tolerance         1.d-4
	#Diag.DivideAndConquer false
        #ElectronicTemperature 5 meV
#
################## CELL ################################################
#
        LatticeConstant 10.0 Ang
	%block LatticeVectors
	1.0 0.0 0.0
	0.0 1.0 0.0
	0.0 0.0 1.0
	%endblock LatticeVectors
	LatticeConstant   5.590  Ang
	%block kgrid_Monkhorst_Pack
	1 0 0 0.0
	0 1 0 0.0
	0 0 2 0.0
	%endblock kgrid_Monkhorst_Pack
#
################## ATOM COORD. #########################################
#
	%block ChemicalSpeciesLabel
	 1  32  Ge_LDA      # Species index, atomic number, species label
	 2   1  H_LDA
	%endblock ChemicalSpeciesLabel
	AtomicCoordinatesFormat Bohr
	%block AtomicCoordinatesAndAtomicSpecies
	 0.000000000       0.000000000       0.000000000    1
	 2.640893312       2.640893312       2.640893312    1
	 0.000000000       5.281786623       5.281786623    1
	 5.281786623       0.000000000       5.281786623    1
	 5.281786623       5.281786623       0.000000000    1
	 2.640893312       7.922679935       7.922679935    1
	 7.922679935       2.640893312       7.922679935    1
	 7.922679935       7.922679935       2.640893312    1
	 0.000000000       1.320400000       0.000000000    2
	%endblock AtomicCoordinatesAndAtomicSpecies
************************** End of input data file *****************************

reinit: -----------------------------------------------------------------------
reinit: System Name: Germanium
reinit: -----------------------------------------------------------------------
reinit: System Label: md
reinit: -----------------------------------------------------------------------

initatom: Reading input for the pseudopotentials and atomic orbitals ----------
Species number:   1 Atomic number:   32 Label: Ge_LDA
Species number:   2 Atomic number:    1 Label: H_LDA

Ground state valence configuration:   4s02  4p02
Reading pseudopotential information in formatted form from Ge_LDA.psf

Valence configuration for pseudopotential generation:
4s( 2.00) rc: 2.06
4p( 2.00) rc: 2.85
4d( 0.00) rc: 2.58
4f( 0.00) rc: 2.58
Ground state valence configuration:   1s01
Reading pseudopotential information in formatted form from H_LDA.psf

Valence configuration for pseudopotential generation:
1s( 1.00) rc: 1.31
2p( 0.00) rc: 1.31
3d( 0.00) rc: 0.37
4f( 0.00) rc: 1.31
For Ge_LDA, standard SIESTA heuristics set lmxkb to 2
 (one more than the basis l, including polarization orbitals).
Use PS.lmax or PS.KBprojectors blocks to override.
For H_LDA, standard SIESTA heuristics set lmxkb to 1
 (one more than the basis l, including polarization orbitals).
Use PS.lmax or PS.KBprojectors blocks to override.

<basis_specs>
===============================================================================
Ge_LDA               Z=  32    Mass=  72.610        Charge= 0.17977+309
Lmxo=1 Lmxkb= 2    BasisType=split      Semic=F
L=0  Nsemic=0  Cnfigmx=4
          n=1  nzeta=1  polorb=0
            splnorm:   0.15000    
               vcte:    0.0000    
               rinn:    0.0000    
               qcoe:    0.0000    
               qyuk:    0.0000    
               qwid:   0.10000E-01
                rcs:    0.0000    
            lambdas:    1.0000    
L=1  Nsemic=0  Cnfigmx=4
          n=1  nzeta=1  polorb=0
            splnorm:   0.15000    
               vcte:    0.0000    
               rinn:    0.0000    
               qcoe:    0.0000    
               qyuk:    0.0000    
               qwid:   0.10000E-01
                rcs:    0.0000    
            lambdas:    1.0000    
-------------------------------------------------------------------------------
L=0  Nkbl=1  erefs: 0.17977+309
L=1  Nkbl=1  erefs: 0.17977+309
L=2  Nkbl=1  erefs: 0.17977+309
===============================================================================
</basis_specs>

atom: Called for Ge_LDA                (Z =  32)

read_vps: Pseudopotential generation method:
read_vps: ATM3      Troullier-Martins                       
Total valence charge:    4.00000

xc_check: Exchange-correlation functional:
xc_check: Ceperley-Alder
V l=0 = -2*Zval/r beyond r=  4.1965
V l=1 = -2*Zval/r beyond r=  4.1965
V l=2 = -2*Zval/r beyond r=  4.1965
All V_l potentials equal beyond r=  2.7780
This should be close to max(r_c) in ps generation
All pots = -2*Zval/r beyond r=  4.1965
Using large-core scheme for Vlocal

atom: Estimated core radius    4.19648

atom: Including non-local core corrections could be a good idea
atom: Maximum radius for 4*pi*r*r*local-pseudopot. charge    4.58022
atom: Maximum radius for r*vlocal+2*Zval:    4.24926

KBgen: Kleinman-Bylander projectors: 
GHOST: No ghost state for L =  0
   l= 0   rc=  2.884170   el= -0.853240   Ekb= 25.817935   kbcos=  0.037417
GHOST: No ghost state for L =  1
   l= 1   rc=  2.884170   el= -0.300199   Ekb= -0.647063   kbcos= -0.202541
GHOST: No ghost state for L =  2
   l= 2   rc=  2.884170   el=  0.002321   Ekb=  5.695004   kbcos=  0.013245

KBgen: Total number of  Kleinman-Bylander projectors:    9
atom: -------------------------------------------------------------------------

atom: SANKEY-TYPE ORBITALS:

SPLIT: Orbitals with angular momentum L= 0

SPLIT: Basis orbitals for state 4s

SPLIT: PAO cut-off radius determined from an
SPLIT: energy shift=  0.020000 Ry

   izeta = 1
                 lambda =    1.000000
                     rc =    4.875625
                 energy =   -0.832702
                kinetic =    0.604310
    potential(screened) =   -1.437012
       potential(ionic) =   -3.905520

SPLIT: Orbitals with angular momentum L= 1

SPLIT: Basis orbitals for state 4p

SPLIT: PAO cut-off radius determined from an
SPLIT: energy shift=  0.020000 Ry

   izeta = 1
                 lambda =    1.000000
                     rc =    6.260448
                 energy =   -0.279949
                kinetic =    0.832747
    potential(screened) =   -1.112695
       potential(ionic) =   -3.332848
atom: Total number of Sankey-type orbitals:  4

atm_pop: Valence configuration (for local Pseudopot. screening):
 4s( 2.00)                                                            
 4p( 2.00)                                                            
Vna: chval, zval:    4.00000   4.00000

Vna:  Cut-off radius for the neutral-atom potential:   6.260448

atom: _________________________________________________________________________

<basis_specs>
===============================================================================
H_LDA                Z=   1    Mass=  1.0100        Charge= 0.17977+309
Lmxo=0 Lmxkb= 1    BasisType=split      Semic=F
L=0  Nsemic=0  Cnfigmx=1
          n=1  nzeta=1  polorb=0
            splnorm:   0.15000    
               vcte:    0.0000    
               rinn:    0.0000    
               qcoe:    0.0000    
               qyuk:    0.0000    
               qwid:   0.10000E-01
                rcs:    0.0000    
            lambdas:    1.0000    
-------------------------------------------------------------------------------
L=0  Nkbl=1  erefs: 0.17977+309
L=1  Nkbl=1  erefs: 0.17977+309
===============================================================================
</basis_specs>

atom: Called for H_LDA                 (Z =   1)

read_vps: Pseudopotential generation method:
read_vps: ATM3      Troullier-Martins                       
Total valence charge:    1.00000

xc_check: Exchange-correlation functional:
xc_check: Ceperley-Alder
V l=0 = -2*Zval/r beyond r=  1.2977
V l=1 = -2*Zval/r beyond r=  1.2815
All V_l potentials equal beyond r=  1.2977
This should be close to max(r_c) in ps generation
All pots = -2*Zval/r beyond r=  1.2977

VLOCAL1: 99.0% of the norm of Vloc inside     25.776 Ry
VLOCAL1: 99.9% of the norm of Vloc inside     58.745 Ry
atom: Maximum radius for 4*pi*r*r*local-pseudopot. charge    1.52711
atom: Maximum radius for r*vlocal+2*Zval:    1.28155

KBgen: Kleinman-Bylander projectors: 
GHOST: No ghost state for L =  0
   l= 0   rc=  1.434438   el= -0.467325   Ekb= -1.940326   kbcos= -0.353040
GHOST: No ghost state for L =  1
   l= 1   rc=  1.508111   el=  0.001430   Ekb= -0.480826   kbcos= -0.024144

KBgen: Total number of  Kleinman-Bylander projectors:    4
atom: -------------------------------------------------------------------------

atom: SANKEY-TYPE ORBITALS:

SPLIT: Orbitals with angular momentum L= 0

SPLIT: Basis orbitals for state 1s

SPLIT: PAO cut-off radius determined from an
SPLIT: energy shift=  0.020000 Ry

   izeta = 1
                 lambda =    1.000000
                     rc =    4.828263
                 energy =   -0.449375
                kinetic =    0.925762
    potential(screened) =   -1.375137
       potential(ionic) =   -1.911235
atom: Total number of Sankey-type orbitals:  1

atm_pop: Valence configuration (for local Pseudopot. screening):
 1s( 1.00)                                                            
Vna: chval, zval:    1.00000   1.00000

Vna:  Cut-off radius for the neutral-atom potential:   4.828263

atom: _________________________________________________________________________

prinput: Basis input ----------------------------------------------------------

PAO.BasisType split     

%block ChemicalSpeciesLabel
    1   32 Ge_LDA                  # Species index, atomic number, species label
    2    1 H_LDA                   # Species index, atomic number, species label
%endblock ChemicalSpeciesLabel

%block PAO.Basis                 # Define Basis set
Ge_LDA                2                    # Species label, number of l-shells
 n=4   0   1                         # n, l, Nzeta 
   4.876   
   1.000   
 n=4   1   1                         # n, l, Nzeta 
   6.260   
   1.000   
H_LDA                 1                    # Species label, number of l-shells
 n=1   0   1                         # n, l, Nzeta 
   4.828   
   1.000   
%endblock PAO.Basis

prinput: ----------------------------------------------------------------------

Dumping basis to NetCDF file Ge_LDA.ion.nc
Dumping basis to NetCDF file H_LDA.ion.nc
coor:   Atomic-coordinates input format  =     Cartesian coordinates
coor:                                            (in Bohr units)

siesta: Atomic coordinates (Bohr) and species
siesta:      0.00000   0.00000   0.00000  1        1
siesta:      2.64089   2.64089   2.64089  1        2
siesta:      0.00000   5.28179   5.28179  1        3
siesta:      5.28179   0.00000   5.28179  1        4
siesta:      5.28179   5.28179   0.00000  1        5
siesta:      2.64089   7.92268   7.92268  1        6
siesta:      7.92268   2.64089   7.92268  1        7
siesta:      7.92268   7.92268   2.64089  1        8
siesta:      0.00000   1.32040   0.00000  2        9

siesta: System type = bulk      

initatomlists: Number of atoms, orbitals, and projectors:      9    33    76

coxmol: Writing XMOL coordinates into file md.xyz                                                              

siesta: ******************** Simulation parameters ****************************
siesta:
siesta: The following are some of the parameters of the simulation.
siesta: A complete list of the parameters used, including default values,
siesta: can be found in file out.fdf
siesta:
redata: Spin configuration                          = none
redata: Number of spin components                   = 1
redata: Time-Reversal Symmetry                      = T
redata: Spin-spiral                                 = F
redata: Long output                                 =   F
redata: Number of Atomic Species                    =        2
redata: Charge density info will appear in .RHO file
redata: Write Mulliken Pop.                         = NO
redata: Matel table size (NRTAB)                    =     1024
redata: Mesh Cutoff                                 =   150.0000 Ry
redata: Net charge of the system                    =     0.0000 |e|
redata: Min. number of SCF Iter                     =        0
redata: Max. number of SCF Iter                     =     1000
redata: SCF convergence failure will abort job
redata: SCF mix quantity                            = Hamiltonian
redata: Mix DM or H after convergence               =   F
redata: Recompute H after scf cycle                 =   F
redata: Mix DM in first SCF step                    =   T
redata: Write Pulay info on disk                    =   F
redata: New DM Mixing Weight                        =     0.2000
redata: New DM Occupancy tolerance                  = 0.000000000001
redata: No kicks to SCF
redata: DM Mixing Weight for Kicks                  =     0.5000
redata: Require Harris convergence for SCF          =   F
redata: Harris energy tolerance for SCF             =     0.000100 eV
redata: Require DM convergence for SCF              =   T
redata: DM tolerance for SCF                        =     0.000100
redata: Require EDM convergence for SCF             =   F
redata: EDM tolerance for SCF                       =     0.001000 eV
redata: Require H convergence for SCF               =   T
redata: Hamiltonian tolerance for SCF               =     0.001000 eV
redata: Require (free) Energy convergence for SCF   =   F
redata: (free) Energy tolerance for SCF             =     0.000100 eV
redata: Using Saved Data (generic)                  =   F
redata: Use continuation files for DM               =   F
redata: Neglect nonoverlap interactions             =   F
redata: Method of Calculation                       = Diagonalization
redata: Electronic Temperature                      =   299.9869 K
redata: Fix the spin of the system                  =   F
redata: Max. number of TDED Iter                    =        1
redata: Number of TDED substeps                     =        3
redata: Dynamics option                             = Single-point calculation
mix.SCF: Pulay mixing                            = Pulay
mix.SCF:    Variant                              = stable
mix.SCF:    History steps                        = 3
mix.SCF:    Linear mixing weight                 =     0.200000
mix.SCF:    Mixing weight                        =     0.200000
mix.SCF:    SVD condition                        = 0.1000E-07
redata: Save all siesta data in one NC              =   F
redata: ***********************************************************************

%block SCF.Mixers
  Pulay
%endblock SCF.Mixers

%block SCF.Mixer.Pulay
  # Mixing method
  method pulay
  variant stable

  # Mixing options
  weight 0.2000
  weight.linear 0.2000
  history 3
%endblock SCF.Mixer.Pulay

DM_history_depth set to one: no extrapolation allowed by default for geometry relaxation
Size of DM history Fstack: 1
Total number of electrons:    33.000000
Total ionic charge:    33.000000

* ProcessorY, Blocksize:    4   1


* Orbital distribution balance (max,min):     2     1

k-point displ. along   3 input, could be:     0.00    0.50
 Kpoints in:            2 . Kpoints trimmed:            2

siesta: k-grid: Number of k-points =         2
siesta: k-points from Monkhorst-Pack grid
siesta: k-cutoff (effective) =     5.000 Ang
siesta: k-point supercell and displacements
siesta: k-grid:    1   0   0      0.000
siesta: k-grid:    0   1   0      0.000
siesta: k-grid:    0   0   2      0.000

diag: Algorithm                                     = D&C
diag: Parallel over k                               =   F
diag: Use parallel 2D distribution                  =   T
diag: Parallel block-size                           = 1
diag: Parallel distribution                         =     4 x     5
diag: Used triangular part                          = Lower
diag: Absolute tolerance                            =  0.100E-15
diag: Orthogonalization factor                      =  0.100E-05
diag: Memory factor                                 =  1.0000

superc: Internal auxiliary supercell:     3 x     3 x     3  =      27
superc: Number of atoms, orbitals, and projectors:    243    891   2052


ts: **************************************************************
ts: Save H and S matrices                           =    F
ts: Save DM and EDM matrices                        =    F
ts: Fix Hartree potential                           =    F
ts: Only save the overlap matrix S                  =    F
ts: **************************************************************

************************ Begin: TS CHECKS AND WARNINGS ************************
************************ End: TS CHECKS AND WARNINGS **************************


                     ====================================
                        Single-point calculation
                     ====================================

outcoor: Atomic coordinates (Bohr):                         
    0.00000000    0.00000000    0.00000000   1       1  Ge_LDA
    2.64089331    2.64089331    2.64089331   1       2  Ge_LDA
    0.00000000    5.28178662    5.28178662   1       3  Ge_LDA
    5.28178662    0.00000000    5.28178662   1       4  Ge_LDA
    5.28178662    5.28178662    0.00000000   1       5  Ge_LDA
    2.64089331    7.92267993    7.92267993   1       6  Ge_LDA
    7.92267993    2.64089331    7.92267993   1       7  Ge_LDA
    7.92267993    7.92267993    2.64089331   1       8  Ge_LDA
    0.00000000    1.32040000    0.00000000   2       9  H_LDA

superc: Internal auxiliary supercell:     3 x     3 x     3  =      27
superc: Number of atoms, orbitals, and projectors:    243    891   2052

outcell: Unit cell vectors (Ang):
       10.000000    0.000000    0.000000
        0.000000   10.000000    0.000000
        0.000000    0.000000   10.000000

outcell: Cell vector modules (Ang)   :   10.000000   10.000000   10.000000
outcell: Cell angles (23,13,12) (deg):     90.0000     90.0000     90.0000
outcell: Cell volume (Ang**3)        :   1000.0000
<dSpData1D:S at geom step 0
  <sparsity:sparsity for geom step 0
    nrows_g=33 nrows=2 sparsity=.0606 nnzs=66, refcount: 7>
  <dData1D:(new from dSpData1D) n=66, refcount: 1>
refcount: 1>
new_DM -- step:     1
Initializing Density Matrix...
DM filled with atomic data:
<dSpData2D:DM initialized from atoms
  <sparsity:sparsity for geom step 0
    nrows_g=33 nrows=2 sparsity=.0606 nnzs=66, refcount: 8>
  <dData2D:DM n=66 m=1, refcount: 1>
refcount: 1>
No. of atoms with KB's overlaping orbs in proc 0. Max # of overlaps:       9      33
New grid distribution:   1
           1       1:   40    1:   10    1:    8
           2       1:   40    1:   10    9:   16
           3       1:   40    1:   10   17:   24
           4       1:   40    1:   10   25:   32
           5       1:   40    1:   10   33:   40
           6       1:   40   11:   20    1:    8
           7       1:   40   11:   20    9:   16
           8       1:   40   11:   20   17:   24
           9       1:   40   11:   20   25:   32
          10       1:   40   11:   20   33:   40
          11       1:   40   21:   30    1:    8
          12       1:   40   21:   30    9:   16
          13       1:   40   21:   30   17:   24
          14       1:   40   21:   30   25:   32
          15       1:   40   21:   30   33:   40
          16       1:   40   31:   40    1:    8
          17       1:   40   31:   40    9:   16
          18       1:   40   31:   40   17:   24
          19       1:   40   31:   40   25:   32
          20       1:   40   31:   40   33:   40

InitMesh: MESH =    80 x    80 x    80 =      512000
InitMesh: (bp) =    40 x    40 x    40 =       64000
InitMesh: Mesh cutoff (required, used) =   150.000   176.881 Ry
ExtMesh (bp) on 0 =    96 x    66 x    64 =      405504
New grid distribution:   2
           1      10:   40    1:   10    1:    5
           2      10:   40    7:   10    6:   11
           3      10:   40    1:    6   16:   40
           4      10:   40    7:   11   16:   40
           5       1:    9    1:   11   19:   40
           6       1:    9   11:   40    1:    6
           7      10:   40   11:   16    6:   11
           8      11:   40   12:   18   16:   40
           9      10:   40    1:   11   12:   15
          10       1:    9    1:   11   12:   18
          11      10:   40   11:   40    1:    5
          12      10:   40   17:   40    6:   11
          13      11:   40   19:   40   16:   40
          14       1:   10   12:   40   12:   18
          15       1:    9    1:   10    1:    6
          16       1:    9   11:   40    7:   11
          17      11:   40   12:   40   12:   15
          18      10:   40    1:    6    6:   11
          19       1:   10   12:   40   19:   40
          20       1:    9    1:   10    7:   11
New grid distribution:   3
           1      14:   40   27:   40    6:   16
           2       1:   16    1:   17    9:   16
           3      14:   40    1:   15   17:   22
           4      14:   40    1:    7   23:   40
           5      14:   40    8:   15   23:   40
           6      17:   40    1:   17    1:    6
           7      14:   40   18:   26    6:   16
           8       1:   16    1:   17    1:    8
           9      11:   40   16:   25   23:   40
          10       1:   13    1:   15   29:   40
          11      14:   40   18:   40    1:    5
          12       1:   13   18:   40    9:   16
          13      11:   40   16:   40   17:   22
          14      17:   40    1:    9    7:   16
          15       1:   10   16:   40   28:   40
          16       1:   13   18:   40    1:    8
          17       1:   13    1:   15   17:   28
          18       1:   10   16:   40   17:   27
          19      11:   40   26:   40   23:   40
          20      17:   40   10:   17    7:   16
Setting up quadratic distribution...
ExtMesh (bp) on 0 =    87 x    66 x    61 =      350262
PhiOnMesh: Number of (b)points on node 0 =                 1550
PhiOnMesh: nlist on node 0 =                13451

stepf: Fermi-Dirac step function

siesta: Program's energy decomposition (eV):
siesta: Ebs     =      -295.805404
siesta: Eions   =      1040.352437
siesta: Ena     =       135.406725
siesta: Ekin    =       309.674736
siesta: Enl     =        -0.238694
siesta: Eso     =         0.000000
siesta: Eldau   =         0.000000
siesta: DEna    =        14.471371
siesta: DUscf   =         4.232329
siesta: DUext   =         0.000000
siesta: Enegf   =         0.000000
siesta: Exc     =      -242.977735
siesta: eta*DQ  =         0.000000
siesta: Emadel  =         0.000000
siesta: Emeta   =         0.000000
siesta: Emolmec =         0.000000
siesta: Ekinion =         0.000000
siesta: Eharris =      -818.231683
siesta: Etot    =      -819.783706
siesta: FreeEng =      -819.883554

        iscf     Eharris(eV)        E_KS(eV)     FreeEng(eV)     dDmax    Ef(eV) dHmax(eV)
   scf:    1     -818.231683     -819.783706     -819.883554  0.907001 -3.763652  2.590648
timer: Routine,Calls,Time,% = IterSCF        1       0.190  17.59
   scf:    2     -817.382163     -820.029969     -820.116730  0.344657 -3.997613  3.165753
   scf:    3     -817.015828     -820.206142     -820.293001  0.277050 -4.014561  2.319570
   scf:    4     -821.159014     -821.088910     -821.180128  0.127324 -4.035780  1.472593
   scf:    5     -820.143274     -820.857276     -820.963058  0.149106 -4.108869  1.226395
   scf:    6     -820.689486     -821.091978     -821.177222  0.195989 -4.107989  0.909538
   scf:    7     -818.769174     -820.450437     -820.538214  0.130669 -4.176872  2.249707
   scf:    8     -820.792492     -821.157924     -821.257882  0.145319 -4.143198  0.605951
   scf:    9     -821.171625     -821.182294     -821.282706  0.035684 -4.177228  0.476405
   scf:   10     -820.961454     -821.138050     -821.245970  0.065210 -4.180101  0.767249
   scf:   11     -821.478667     -821.402394     -821.511778  0.047535 -4.204108  4.194398
   scf:   12     -821.840764     -821.658331     -821.763446  0.043010 -4.188587  3.895892
   scf:   13     -820.402657     -821.303310     -821.396272  0.130481 -4.187108  3.935147
   scf:   14     -809.912738     -817.247229     -817.300637  0.406205 -4.212870  4.401397
   scf:   15     -821.529857     -819.702015     -819.747802  0.141971 -4.198733  2.735218
   scf:   16     -821.333304     -820.709832     -820.775142  0.122244 -4.212415  0.866655
   scf:   17     -818.827012     -820.561318     -820.643677  0.323901 -4.204350  1.729770
   scf:   18     -820.491479     -821.004095     -821.091232  0.177758 -4.201256  1.052232
   scf:   19     -821.098266     -821.158571     -821.254817  0.077048 -4.204499  0.297841
   scf:   20     -821.176961     -821.179616     -821.285031  0.059138 -4.211364  0.322610
   scf:   21     -821.172205     -821.188348     -821.291398  0.043591 -4.210922  0.188460
   scf:   22     -821.116152     -821.176550     -821.282315  0.056993 -4.212718  0.374478
   scf:   23     -821.197872     -821.193490     -821.300693  0.014445 -4.214618  0.224158
   scf:   24     -821.193956     -821.196402     -821.303003  0.013376 -4.214360  0.207959
   scf:   25     -821.195257     -821.198396     -821.306252  0.012701 -4.216959  0.142708
   scf:   26     -821.031799     -821.152092     -821.260144  0.041133 -4.219201  0.574467
   scf:   27     -821.192556     -821.200558     -821.309062  0.032106 -4.218224  0.104927
   scf:   28     -821.201980     -821.201583     -821.310239  0.003429 -4.218892  0.045582
   scf:   29     -821.200904     -821.201340     -821.310452  0.002720 -4.220011  0.036761
   scf:   30     -821.201195     -821.201418     -821.310619  0.003732 -4.220943  0.031745
   scf:   31     -821.199225     -821.200668     -821.310414  0.007534 -4.222352  0.052335
   scf:   32     -821.200450     -821.201069     -821.310460  0.005021 -4.221670  0.043953
   scf:   33     -821.200585     -821.201106     -821.310676  0.003288 -4.221963  0.032519
   scf:   34     -821.201312     -821.201303     -821.310777  0.002487 -4.222289  0.011483
   scf:   35     -821.200732     -821.201073     -821.310776  0.003378 -4.222542  0.018228
   scf:   36     -821.201240     -821.201204     -821.310783  0.001821 -4.222623  0.013915
   scf:   37     -821.200952     -821.201132     -821.310778  0.001408 -4.222720  0.016126
   scf:   38     -821.201288     -821.201246     -821.310809  0.001226 -4.222815  0.009527
   scf:   39     -821.200930     -821.201100     -821.310819  0.001277 -4.222987  0.006728
   scf:   40     -821.201282     -821.201206     -821.310810  0.001069 -4.223055  0.009972
   scf:   41     -821.201056     -821.201152     -821.310813  0.000919 -4.223114  0.008469
   scf:   42     -821.201213     -821.201194     -821.310823  0.000680 -4.223161  0.005329
   scf:   43     -821.200965     -821.201084     -821.310826  0.000626 -4.223296  0.003537
   scf:   44     -821.201270     -821.201180     -821.310826  0.000625 -4.223313  0.003690
   scf:   45     -821.201083     -821.201137     -821.310823  0.000500 -4.223361  0.004694
   scf:   46     -821.201170     -821.201159     -821.310826  0.000474 -4.223400  0.004890
   scf:   47     -821.201026     -821.201095     -821.310828  0.000388 -4.223468  0.002325
   scf:   48     -821.201243     -821.201171     -821.310828  0.000371 -4.223478  0.002594
   scf:   49     -821.201082     -821.201129     -821.310827  0.000364 -4.223520  0.003304
   scf:   50     -821.201144     -821.201139     -821.310828  0.000311 -4.223539  0.002826
   scf:   51     -821.201048     -821.201095     -821.310829  0.000248 -4.223588  0.001870
   scf:   52     -821.201212     -821.201154     -821.310829  0.000222 -4.223585  0.001682
   scf:   53     -821.201086     -821.201121     -821.310828  0.000258 -4.223616  0.002498
   scf:   54     -821.201133     -821.201129     -821.310829  0.000258 -4.223631  0.002739
   scf:   55     -821.201072     -821.201101     -821.310829  0.000173 -4.223658  0.001367
   scf:   56     -821.201193     -821.201147     -821.310829  0.000148 -4.223651  0.001237
   scf:   57     -821.201088     -821.201118     -821.310829  0.000225 -4.223677  0.002272
   scf:   58     -821.201129     -821.201125     -821.310829  0.000202 -4.223685  0.001771
   scf:   59     -821.201079     -821.201102     -821.310829  0.000136 -4.223706  0.001213
   scf:   60     -821.201178     -821.201140     -821.310830  0.000126 -4.223696  0.000893
   scf:   61     -821.201093     -821.201117     -821.310829  0.000164 -4.223715  0.001600
   scf:   62     -821.201125     -821.201122     -821.310829  0.000172 -4.223721  0.001855
   scf:   63     -821.201091     -821.201107     -821.310830  0.000124 -4.223734  0.000974
   scf:   64     -821.201167     -821.201137     -821.310830  0.000100 -4.223723  0.000700

SCF Convergence by DM+H criterion
max |DM_out - DM_in|         :     0.0000998821
max |H_out - H_in|      (eV) :     0.0006996899
SCF cycle converged after 64 iterations

Using DM_out to compute the final energy and forces
No. of atoms with KB's overlaping orbs in proc 0. Max # of overlaps:       9      33

siesta: E_KS(eV) =             -821.2011

siesta: E_KS - E_eggbox =      -821.2011

siesta: Atomic forces (eV/Ang):
     1    0.953641 -116.796000    0.948682
     2    1.102493   -0.977355    1.085246
     3   -0.663837   -0.020023    0.032817
     4    0.064789   -0.255597    0.074445
     5    0.017379   -0.024025   -0.694373
     6    1.288448   -0.020145   -0.076942
     7    0.146858    1.267152    0.153098
     8   -0.088081   -0.023752    1.293585
     9   -2.818765  116.850878   -2.813605
----------------------------------------
   Tot    0.002924    0.001133    0.002954
----------------------------------------
   Max  116.850878
   Res   31.811046    sqrt( Sum f_i^2 / 3N )
----------------------------------------
   Max  116.850878    constrained

Stress-tensor-Voigt (kbar):       -6.06     -130.79       -6.17       -4.88       -4.90       -9.22
(Free)E + p*V (eV/cell)     -791.5545
Target enthalpy (eV/cell)     -821.3108

coxmol: Writing XMOL coordinates into file md.xyz                                                              

siesta: Program's energy decomposition (eV):
siesta: Ebs     =      -286.495735
siesta: Eions   =      1040.352437
siesta: Ena     =       135.406725
siesta: Ekin    =       311.507610
siesta: Enl     =         0.086818
siesta: Eso     =         0.000000
siesta: Eldau   =         0.000000
siesta: DEna    =        13.295323
siesta: DUscf   =         1.965950
siesta: DUext   =         0.000000
siesta: Enegf   =         0.000000
siesta: Exc     =      -243.111127
siesta: eta*DQ  =         0.000000
siesta: Emadel  =         0.000000
siesta: Emeta   =         0.000000
siesta: Emolmec =         0.000000
siesta: Ekinion =         0.000000
siesta: Eharris =      -821.201167
siesta: Etot    =      -821.201137
siesta: FreeEng =      -821.310830

siesta: Final energy (eV):
siesta:  Band Struct. =    -286.495735
siesta:       Kinetic =     311.507610
siesta:       Hartree =     632.896242
siesta:       Eldau   =       0.000000
siesta:       Eso     =       0.000000
siesta:    Ext. field =       0.000000
siesta:       Enegf   =       0.000000
siesta:   Exch.-corr. =    -243.111127
siesta:  Ion-electron =   -1546.935971
siesta:       Ion-ion =      24.442108
siesta:       Ekinion =       0.000000
siesta:         Total =    -821.201137
siesta:         Fermi =      -4.223723

siesta: Atomic forces (eV/Ang):
siesta:      1    0.953641 -116.796000    0.948682
siesta:      2    1.102493   -0.977355    1.085246
siesta:      3   -0.663837   -0.020023    0.032817
siesta:      4    0.064789   -0.255597    0.074445
siesta:      5    0.017379   -0.024025   -0.694373
siesta:      6    1.288448   -0.020145   -0.076942
siesta:      7    0.146858    1.267152    0.153098
siesta:      8   -0.088081   -0.023752    1.293585
siesta:      9   -2.818765  116.850878   -2.813605
siesta: ----------------------------------------
siesta:    Tot    0.002924    0.001133    0.002954

siesta: Stress tensor (static) (eV/Ang**3):
siesta:    -0.003784   -0.003043   -0.005756
siesta:    -0.003043   -0.081634   -0.003056
siesta:    -0.005756   -0.003056   -0.003851

siesta: Cell volume =       1000.000000 Ang**3

siesta: Pressure (static):
siesta:                Solid            Molecule  Units
siesta:           0.00032408         -0.00000081  Ry/Bohr**3
siesta:           0.02975637         -0.00007438  eV/Ang**3
siesta:          47.67548342         -0.11917403  kBar
(Free)E+ p_basis*V_orbitals  =        -818.984241
(Free)Eharris+ p_basis*V_orbitals  =        -818.984270

>> End of run:  24-FEB-2020  16:04:56
Job completed
