Siesta Version  : trunk-755
Architecture    : x86_64-unknown-linux
Compiler version: GNU Fortran (GCC) 4.9.3
Compiler flags  : mpif90 -O3 -msse4.2 -m64 -fPIC -ftree-vectorize -funroll-loops -fprefetch-looop-arrays -fno-second-underscore -floop-block -fgraphite -Wall -I/home/pablolopez/Programs/bigdft/build_solver/install/include -L/home/pablolopez/Programs/bigdft/build_solver/install/lib -lPSolver-1 -lfutile-1 -llapack -lblas -ldl -lrt -lyaml
PP flags        : -DCDF -DNCDF -DNCDF_4 -DNCDF_PARALLEL -DMPI -DUSE_GEMM3M
Libraries       : libncdf.a libfdict.a -Wl,--start-group /home/pedro/local/opt/openblas/0.2.14//g4.9.3/lib/libopenblas.a /home/pedro/local/opt/lapack/rev1558/g4.9.3/lib/liblapack.a /home/pedro/local/opt/scalapack/rev200/ompi1.8.5-g4.9.3/lib/libscalapack.a -Wl,--end-group -lpthread -lm -L/home/pedro/local/opt/netcdf-fortran/4.4.2/ompi1.8.5-g4.9.3/lib -lnetcdff -L/home/pedro/local/opt/hdf5/1.8.14/ompi1.8.5-g4.9.3/lib -lhdf5hl_fortran -lhdf5_fortran -lhdf5_hl -lhdf5 -L/home/pedro/local/opt/zlib/1.2.8/g4.9.3/lib -lz -L/home/pedro/local/opt/openmpi/1.8.5/g4.9.3/lib -lmpi libncdf.a libfdict.a -I/home/pablolopez/Programs/bigdft/build_solver/install/include -L/home/pablolopez/Programs/bigdft/build_solver/install/lib -lPSolver-1 -lfutile-1 -ldl -lrt -lyaml -llapack -lblas
Directory       : /home/pablolopez/Siesta/Psolver/Periodic/3D_Ge_H
PARALLEL version
GEMM3M support
NetCDF support
NetCDF-4 support
NetCDF-4 MPI-IO support

* Running on 20 nodes in parallel
>> Start of run:  24-FEB-2020  16:01:45

                           ***********************       
                           *  WELCOME TO SIESTA  *       
                           ***********************       

reinit: Reading from standard input
reinit: Dumped input in INPUT_TMP.59965
************************** Dump of input data file ****************************
#
################## GENERAL SETINGS #####################################
#
        SystemName          Germanium
        SystemLabel         md
        NumberOfAtoms       9
        NumberOfSpecies     2
#
################## TYPE OF RUN #########################################
#
        UseBIGDFTsolver .true.
        #MD.UseSaveXV       T
#        MD.TypeOfRun          Anneal
#        MD.AnnealOption       Temperature
#        MD.InitialTemperature 100 K
#        MD.TargetTemperature 600 K
#        MD.TauRelax       20 fs
#        MD.Initial.Time.Step      1
#        MD.Final.Time.Step        100
#        MD.Length.Time.Step       0.2 fs
#
################## WRITING #############################################
#
        WriteCoorStep   .true.
        WriteForces     .true.
        WriteMDHistory  .true.
        WriteCoorXmol   .true.
        WriteMDXmol   	.true.
	SaveRho		.true.
#
################## ACCURACY ############################################
#
        xc.functional LDA
        xc.authors CA
#       Atom.Ignore.Ghosts
        MeshCutoff  150 Ry
#
	UseBIGDFTsolver .true.
#        Psolver.verbose   .true.
# Basis:
        PAO.BasisSize SZ
        #PAO.EnergyShift 20 meV
# SCF:
	SolutionMethod       Diagon
	MaxSCFIterations       1000
	DM.MixingWeight        0.2
	DM.NumberPulay           3
	DM.Tolerance         1.d-4
	#Diag.DivideAndConquer false
        #ElectronicTemperature 5 meV
#
################## CELL ################################################
#
        LatticeConstant 10.0 Ang
	%block LatticeVectors
	1.0 0.0 0.0
	0.0 1.0 0.0
	0.0 0.0 1.0
	%endblock LatticeVectors
	LatticeConstant   5.590  Ang
	%block kgrid_Monkhorst_Pack
	1 0 0 0.0
	0 1 0 0.0
	0 0 2 0.0
	%endblock kgrid_Monkhorst_Pack
#
################## ATOM COORD. #########################################
#
	%block ChemicalSpeciesLabel
	 1  32  Ge_LDA      # Species index, atomic number, species label
	 2   1  H_LDA
	%endblock ChemicalSpeciesLabel
	AtomicCoordinatesFormat Bohr
	%block AtomicCoordinatesAndAtomicSpecies
	 0.000000000       0.000000000       0.000000000    1
	 2.640893312       2.640893312       2.640893312    1
	 0.000000000       5.281786623       5.281786623    1
	 5.281786623       0.000000000       5.281786623    1
	 5.281786623       5.281786623       0.000000000    1
	 2.640893312       7.922679935       7.922679935    1
	 7.922679935       2.640893312       7.922679935    1
	 7.922679935       7.922679935       2.640893312    1
	 0.000000000       1.320400000       0.000000000    2
	%endblock AtomicCoordinatesAndAtomicSpecies
************************** End of input data file *****************************

reinit: -----------------------------------------------------------------------
reinit: System Name: Germanium
reinit: -----------------------------------------------------------------------
reinit: System Label: md
reinit: -----------------------------------------------------------------------

initatom: Reading input for the pseudopotentials and atomic orbitals ----------
Species number:   1 Atomic number:   32 Label: Ge_LDA
Species number:   2 Atomic number:    1 Label: H_LDA

Ground state valence configuration:   4s02  4p02
Reading pseudopotential information in formatted form from Ge_LDA.psf

Valence configuration for pseudopotential generation:
4s( 2.00) rc: 2.06
4p( 2.00) rc: 2.85
4d( 0.00) rc: 2.58
4f( 0.00) rc: 2.58
Ground state valence configuration:   1s01
Reading pseudopotential information in formatted form from H_LDA.psf

Valence configuration for pseudopotential generation:
1s( 1.00) rc: 1.31
2p( 0.00) rc: 1.31
3d( 0.00) rc: 0.37
4f( 0.00) rc: 1.31
For Ge_LDA, standard SIESTA heuristics set lmxkb to 2
 (one more than the basis l, including polarization orbitals).
Use PS.lmax or PS.KBprojectors blocks to override.
For H_LDA, standard SIESTA heuristics set lmxkb to 1
 (one more than the basis l, including polarization orbitals).
Use PS.lmax or PS.KBprojectors blocks to override.

<basis_specs>
===============================================================================
Ge_LDA               Z=  32    Mass=  72.610        Charge= 0.17977+309
Lmxo=1 Lmxkb= 2    BasisType=split      Semic=F
L=0  Nsemic=0  Cnfigmx=4
          n=1  nzeta=1  polorb=0
            splnorm:   0.15000    
               vcte:    0.0000    
               rinn:    0.0000    
               qcoe:    0.0000    
               qyuk:    0.0000    
               qwid:   0.10000E-01
                rcs:    0.0000    
            lambdas:    1.0000    
L=1  Nsemic=0  Cnfigmx=4
          n=1  nzeta=1  polorb=0
            splnorm:   0.15000    
               vcte:    0.0000    
               rinn:    0.0000    
               qcoe:    0.0000    
               qyuk:    0.0000    
               qwid:   0.10000E-01
                rcs:    0.0000    
            lambdas:    1.0000    
-------------------------------------------------------------------------------
L=0  Nkbl=1  erefs: 0.17977+309
L=1  Nkbl=1  erefs: 0.17977+309
L=2  Nkbl=1  erefs: 0.17977+309
===============================================================================
</basis_specs>

atom: Called for Ge_LDA                (Z =  32)

read_vps: Pseudopotential generation method:
read_vps: ATM3      Troullier-Martins                       
Total valence charge:    4.00000

xc_check: Exchange-correlation functional:
xc_check: Ceperley-Alder
V l=0 = -2*Zval/r beyond r=  4.1965
V l=1 = -2*Zval/r beyond r=  4.1965
V l=2 = -2*Zval/r beyond r=  4.1965
All V_l potentials equal beyond r=  2.7780
This should be close to max(r_c) in ps generation
All pots = -2*Zval/r beyond r=  4.1965
Using large-core scheme for Vlocal

atom: Estimated core radius    4.19648

atom: Including non-local core corrections could be a good idea
atom: Maximum radius for 4*pi*r*r*local-pseudopot. charge    4.58022
atom: Maximum radius for r*vlocal+2*Zval:    4.24926

KBgen: Kleinman-Bylander projectors: 
GHOST: No ghost state for L =  0
   l= 0   rc=  2.884170   el= -0.853240   Ekb= 25.817935   kbcos=  0.037417
GHOST: No ghost state for L =  1
   l= 1   rc=  2.884170   el= -0.300199   Ekb= -0.647063   kbcos= -0.202541
GHOST: No ghost state for L =  2
   l= 2   rc=  2.884170   el=  0.002321   Ekb=  5.695004   kbcos=  0.013245

KBgen: Total number of  Kleinman-Bylander projectors:    9
atom: -------------------------------------------------------------------------

atom: SANKEY-TYPE ORBITALS:

SPLIT: Orbitals with angular momentum L= 0

SPLIT: Basis orbitals for state 4s

SPLIT: PAO cut-off radius determined from an
SPLIT: energy shift=  0.020000 Ry

   izeta = 1
                 lambda =    1.000000
                     rc =    4.875625
                 energy =   -0.832702
                kinetic =    0.604310
    potential(screened) =   -1.437012
       potential(ionic) =   -3.905520

SPLIT: Orbitals with angular momentum L= 1

SPLIT: Basis orbitals for state 4p

SPLIT: PAO cut-off radius determined from an
SPLIT: energy shift=  0.020000 Ry

   izeta = 1
                 lambda =    1.000000
                     rc =    6.260448
                 energy =   -0.279949
                kinetic =    0.832747
    potential(screened) =   -1.112695
       potential(ionic) =   -3.332848
atom: Total number of Sankey-type orbitals:  4

atm_pop: Valence configuration (for local Pseudopot. screening):
 4s( 2.00)                                                            
 4p( 2.00)                                                            
Vna: chval, zval:    4.00000   4.00000

Vna:  Cut-off radius for the neutral-atom potential:   6.260448

atom: _________________________________________________________________________

<basis_specs>
===============================================================================
H_LDA                Z=   1    Mass=  1.0100        Charge= 0.17977+309
Lmxo=0 Lmxkb= 1    BasisType=split      Semic=F
L=0  Nsemic=0  Cnfigmx=1
          n=1  nzeta=1  polorb=0
            splnorm:   0.15000    
               vcte:    0.0000    
               rinn:    0.0000    
               qcoe:    0.0000    
               qyuk:    0.0000    
               qwid:   0.10000E-01
                rcs:    0.0000    
            lambdas:    1.0000    
-------------------------------------------------------------------------------
L=0  Nkbl=1  erefs: 0.17977+309
L=1  Nkbl=1  erefs: 0.17977+309
===============================================================================
</basis_specs>

atom: Called for H_LDA                 (Z =   1)

read_vps: Pseudopotential generation method:
read_vps: ATM3      Troullier-Martins                       
Total valence charge:    1.00000

xc_check: Exchange-correlation functional:
xc_check: Ceperley-Alder
V l=0 = -2*Zval/r beyond r=  1.2977
V l=1 = -2*Zval/r beyond r=  1.2815
All V_l potentials equal beyond r=  1.2977
This should be close to max(r_c) in ps generation
All pots = -2*Zval/r beyond r=  1.2977

VLOCAL1: 99.0% of the norm of Vloc inside     25.776 Ry
VLOCAL1: 99.9% of the norm of Vloc inside     58.745 Ry
atom: Maximum radius for 4*pi*r*r*local-pseudopot. charge    1.52711
atom: Maximum radius for r*vlocal+2*Zval:    1.28155

KBgen: Kleinman-Bylander projectors: 
GHOST: No ghost state for L =  0
   l= 0   rc=  1.434438   el= -0.467325   Ekb= -1.940326   kbcos= -0.353040
GHOST: No ghost state for L =  1
   l= 1   rc=  1.508111   el=  0.001430   Ekb= -0.480826   kbcos= -0.024144

KBgen: Total number of  Kleinman-Bylander projectors:    4
atom: -------------------------------------------------------------------------

atom: SANKEY-TYPE ORBITALS:

SPLIT: Orbitals with angular momentum L= 0

SPLIT: Basis orbitals for state 1s

SPLIT: PAO cut-off radius determined from an
SPLIT: energy shift=  0.020000 Ry

   izeta = 1
                 lambda =    1.000000
                     rc =    4.828263
                 energy =   -0.449375
                kinetic =    0.925762
    potential(screened) =   -1.375137
       potential(ionic) =   -1.911235
atom: Total number of Sankey-type orbitals:  1

atm_pop: Valence configuration (for local Pseudopot. screening):
 1s( 1.00)                                                            
Vna: chval, zval:    1.00000   1.00000

Vna:  Cut-off radius for the neutral-atom potential:   4.828263

atom: _________________________________________________________________________

prinput: Basis input ----------------------------------------------------------

PAO.BasisType split     

%block ChemicalSpeciesLabel
    1   32 Ge_LDA                  # Species index, atomic number, species label
    2    1 H_LDA                   # Species index, atomic number, species label
%endblock ChemicalSpeciesLabel

%block PAO.Basis                 # Define Basis set
Ge_LDA                2                    # Species label, number of l-shells
 n=4   0   1                         # n, l, Nzeta 
   4.876   
   1.000   
 n=4   1   1                         # n, l, Nzeta 
   6.260   
   1.000   
H_LDA                 1                    # Species label, number of l-shells
 n=1   0   1                         # n, l, Nzeta 
   4.828   
   1.000   
%endblock PAO.Basis

prinput: ----------------------------------------------------------------------

Dumping basis to NetCDF file Ge_LDA.ion.nc
Dumping basis to NetCDF file H_LDA.ion.nc
coor:   Atomic-coordinates input format  =     Cartesian coordinates
coor:                                            (in Bohr units)

siesta: Atomic coordinates (Bohr) and species
siesta:      0.00000   0.00000   0.00000  1        1
siesta:      2.64089   2.64089   2.64089  1        2
siesta:      0.00000   5.28179   5.28179  1        3
siesta:      5.28179   0.00000   5.28179  1        4
siesta:      5.28179   5.28179   0.00000  1        5
siesta:      2.64089   7.92268   7.92268  1        6
siesta:      7.92268   2.64089   7.92268  1        7
siesta:      7.92268   7.92268   2.64089  1        8
siesta:      0.00000   1.32040   0.00000  2        9

siesta: System type = bulk      

initatomlists: Number of atoms, orbitals, and projectors:      9    33    76

coxmol: Writing XMOL coordinates into file md.xyz                                                              

siesta: ******************** Simulation parameters ****************************
siesta:
siesta: The following are some of the parameters of the simulation.
siesta: A complete list of the parameters used, including default values,
siesta: can be found in file out.fdf
siesta:
redata: Spin configuration                          = none
redata: Number of spin components                   = 1
redata: Time-Reversal Symmetry                      = T
redata: Spin-spiral                                 = F
redata: Long output                                 =   F
redata: Number of Atomic Species                    =        2
redata: Charge density info will appear in .RHO file
redata: Write Mulliken Pop.                         = NO
redata: Matel table size (NRTAB)                    =     1024
redata: Mesh Cutoff                                 =   150.0000 Ry
redata: Net charge of the system                    =     0.0000 |e|
redata: Min. number of SCF Iter                     =        0
redata: Max. number of SCF Iter                     =     1000
redata: SCF convergence failure will abort job
redata: SCF mix quantity                            = Hamiltonian
redata: Mix DM or H after convergence               =   F
redata: Recompute H after scf cycle                 =   F
redata: Mix DM in first SCF step                    =   T
redata: Write Pulay info on disk                    =   F
redata: New DM Mixing Weight                        =     0.2000
redata: New DM Occupancy tolerance                  = 0.000000000001
redata: No kicks to SCF
redata: DM Mixing Weight for Kicks                  =     0.5000
redata: Require Harris convergence for SCF          =   F
redata: Harris energy tolerance for SCF             =     0.000100 eV
redata: Require DM convergence for SCF              =   T
redata: DM tolerance for SCF                        =     0.000100
redata: Require EDM convergence for SCF             =   F
redata: EDM tolerance for SCF                       =     0.001000 eV
redata: Require H convergence for SCF               =   T
redata: Hamiltonian tolerance for SCF               =     0.001000 eV
redata: Require (free) Energy convergence for SCF   =   F
redata: (free) Energy tolerance for SCF             =     0.000100 eV
redata: Using Saved Data (generic)                  =   F
redata: Use continuation files for DM               =   F
redata: Neglect nonoverlap interactions             =   F
redata: Method of Calculation                       = Diagonalization
redata: Electronic Temperature                      =   299.9869 K
redata: Fix the spin of the system                  =   F
redata: Max. number of TDED Iter                    =        1
redata: Number of TDED substeps                     =        3
redata: Dynamics option                             = Single-point calculation
mix.SCF: Pulay mixing                            = Pulay
mix.SCF:    Variant                              = stable
mix.SCF:    History steps                        = 3
mix.SCF:    Linear mixing weight                 =     0.200000
mix.SCF:    Mixing weight                        =     0.200000
mix.SCF:    SVD condition                        = 0.1000E-07
redata: Save all siesta data in one NC              =   F
redata: ***********************************************************************

%block SCF.Mixers
  Pulay
%endblock SCF.Mixers

%block SCF.Mixer.Pulay
  # Mixing method
  method pulay
  variant stable

  # Mixing options
  weight 0.2000
  weight.linear 0.2000
  history 3
%endblock SCF.Mixer.Pulay

DM_history_depth set to one: no extrapolation allowed by default for geometry relaxation
Size of DM history Fstack: 1
Total number of electrons:    33.000000
Total ionic charge:    33.000000

* ProcessorY, Blocksize:    4   1


* Orbital distribution balance (max,min):     2     1

k-point displ. along   3 input, could be:     0.00    0.50
 Kpoints in:            2 . Kpoints trimmed:            2

siesta: k-grid: Number of k-points =         2
siesta: k-points from Monkhorst-Pack grid
siesta: k-cutoff (effective) =     5.000 Ang
siesta: k-point supercell and displacements
siesta: k-grid:    1   0   0      0.000
siesta: k-grid:    0   1   0      0.000
siesta: k-grid:    0   0   2      0.000

diag: Algorithm                                     = D&C
diag: Parallel over k                               =   F
diag: Use parallel 2D distribution                  =   T
diag: Parallel block-size                           = 1
diag: Parallel distribution                         =     4 x     5
diag: Used triangular part                          = Lower
diag: Absolute tolerance                            =  0.100E-15
diag: Orthogonalization factor                      =  0.100E-05
diag: Memory factor                                 =  1.0000

superc: Internal auxiliary supercell:     3 x     3 x     3  =      27
superc: Number of atoms, orbitals, and projectors:    243    891   2052


ts: **************************************************************
ts: Save H and S matrices                           =    F
ts: Save DM and EDM matrices                        =    F
ts: Fix Hartree potential                           =    F
ts: Only save the overlap matrix S                  =    F
ts: **************************************************************

************************ Begin: TS CHECKS AND WARNINGS ************************
************************ End: TS CHECKS AND WARNINGS **************************


                     ====================================
                        Single-point calculation
                     ====================================

outcoor: Atomic coordinates (Bohr):                         
    0.00000000    0.00000000    0.00000000   1       1  Ge_LDA
    2.64089331    2.64089331    2.64089331   1       2  Ge_LDA
    0.00000000    5.28178662    5.28178662   1       3  Ge_LDA
    5.28178662    0.00000000    5.28178662   1       4  Ge_LDA
    5.28178662    5.28178662    0.00000000   1       5  Ge_LDA
    2.64089331    7.92267993    7.92267993   1       6  Ge_LDA
    7.92267993    2.64089331    7.92267993   1       7  Ge_LDA
    7.92267993    7.92267993    2.64089331   1       8  Ge_LDA
    0.00000000    1.32040000    0.00000000   2       9  H_LDA

superc: Internal auxiliary supercell:     3 x     3 x     3  =      27
superc: Number of atoms, orbitals, and projectors:    243    891   2052

outcell: Unit cell vectors (Ang):
       10.000000    0.000000    0.000000
        0.000000   10.000000    0.000000
        0.000000    0.000000   10.000000

outcell: Cell vector modules (Ang)   :   10.000000   10.000000   10.000000
outcell: Cell angles (23,13,12) (deg):     90.0000     90.0000     90.0000
outcell: Cell volume (Ang**3)        :   1000.0000
<dSpData1D:S at geom step 0
  <sparsity:sparsity for geom step 0
    nrows_g=33 nrows=2 sparsity=.0606 nnzs=66, refcount: 7>
  <dData1D:(new from dSpData1D) n=66, refcount: 1>
refcount: 1>
new_DM -- step:     1
Initializing Density Matrix...
DM filled with atomic data:
<dSpData2D:DM initialized from atoms
  <sparsity:sparsity for geom step 0
    nrows_g=33 nrows=2 sparsity=.0606 nnzs=66, refcount: 8>
  <dData2D:DM n=66 m=1, refcount: 1>
refcount: 1>
No. of atoms with KB's overlaping orbs in proc 0. Max # of overlaps:       9      33
New grid distribution:   1
           1       1:   40    1:   10    1:    8
           2       1:   40    1:   10    9:   16
           3       1:   40    1:   10   17:   24
           4       1:   40    1:   10   25:   32
           5       1:   40    1:   10   33:   40
           6       1:   40   11:   20    1:    8
           7       1:   40   11:   20    9:   16
           8       1:   40   11:   20   17:   24
           9       1:   40   11:   20   25:   32
          10       1:   40   11:   20   33:   40
          11       1:   40   21:   30    1:    8
          12       1:   40   21:   30    9:   16
          13       1:   40   21:   30   17:   24
          14       1:   40   21:   30   25:   32
          15       1:   40   21:   30   33:   40
          16       1:   40   31:   40    1:    8
          17       1:   40   31:   40    9:   16
          18       1:   40   31:   40   17:   24
          19       1:   40   31:   40   25:   32
          20       1:   40   31:   40   33:   40

InitMesh: MESH =    80 x    80 x    80 =      512000
InitMesh: (bp) =    40 x    40 x    40 =       64000
InitMesh: Mesh cutoff (required, used) =   150.000   176.881 Ry
ExtMesh (bp) on 0 =    96 x    66 x    64 =      405504
New grid distribution:   2
           1      10:   40    1:   10    1:    5
           2      10:   40    7:   10    6:   11
           3      10:   40    1:    6   16:   40
           4      10:   40    7:   11   16:   40
           5       1:    9    1:   11   19:   40
           6       1:    9   11:   40    1:    6
           7      10:   40   11:   16    6:   11
           8      11:   40   12:   18   16:   40
           9      10:   40    1:   11   12:   15
          10       1:    9    1:   11   12:   18
          11      10:   40   11:   40    1:    5
          12      10:   40   17:   40    6:   11
          13      11:   40   19:   40   16:   40
          14       1:   10   12:   40   12:   18
          15       1:    9    1:   10    1:    6
          16       1:    9   11:   40    7:   11
          17      11:   40   12:   40   12:   15
          18      10:   40    1:    6    6:   11
          19       1:   10   12:   40   19:   40
          20       1:    9    1:   10    7:   11
New grid distribution:   3
           1      14:   40   27:   40    6:   16
           2       1:   16    1:   17    9:   16
           3      14:   40    1:   15   17:   22
           4      14:   40    1:    7   23:   40
           5      14:   40    8:   15   23:   40
           6      17:   40    1:   17    1:    6
           7      14:   40   18:   26    6:   16
           8       1:   16    1:   17    1:    8
           9      11:   40   16:   25   23:   40
          10       1:   13    1:   15   29:   40
          11      14:   40   18:   40    1:    5
          12       1:   13   18:   40    9:   16
          13      11:   40   16:   40   17:   22
          14      17:   40    1:    9    7:   16
          15       1:   10   16:   40   28:   40
          16       1:   13   18:   40    1:    8
          17       1:   13    1:   15   17:   28
          18       1:   10   16:   40   17:   27
          19      11:   40   26:   40   23:   40
          20      17:   40   10:   17    7:   16
Setting up quadratic distribution...
ExtMesh (bp) on 0 =    87 x    66 x    61 =      350262
PhiOnMesh: Number of (b)points on node 0 =                 1550
PhiOnMesh: nlist on node 0 =                13451
bigdft_solver: initialising kernel for a periodic system
bigdft_solver: Poisson solver variables
 Solver boundary condition: P
 verbosity: F
 cavity type:
none                
 isf_order: 16
 fd_order: 16

stepf: Fermi-Dirac step function

siesta: Program's energy decomposition (eV):
siesta: Ebs     =      -295.805404
siesta: Eions   =      1040.352437
siesta: Ena     =       135.406725
siesta: Ekin    =       309.674736
siesta: Enl     =        -0.238694
siesta: Eso     =         0.000000
siesta: Eldau   =         0.000000
siesta: DEna    =        14.471371
siesta: DUscf   =         4.232329
siesta: DUext   =         0.000000
siesta: Enegf   =         0.000000
siesta: Exc     =      -242.977735
siesta: eta*DQ  =         0.000000
siesta: Emadel  =         0.000000
siesta: Emeta   =         0.000000
siesta: Emolmec =         0.000000
siesta: Ekinion =         0.000000
siesta: Eharris =      -818.231683
siesta: Etot    =      -819.783706
siesta: FreeEng =      -819.883554

        iscf     Eharris(eV)        E_KS(eV)     FreeEng(eV)     dDmax    Ef(eV) dHmax(eV)
   scf:    1     -818.231683     -819.783706     -819.883554  0.907001 -3.763652  2.590648
timer: Routine,Calls,Time,% = IterSCF        1       0.280  22.22
   scf:    2     -817.382163     -820.029969     -820.116730  0.344657 -3.997613  3.165753
   scf:    3     -817.015828     -820.206142     -820.293001  0.277050 -4.014561  2.319570
   scf:    4     -821.159014     -821.088910     -821.180128  0.127324 -4.035780  1.472593
   scf:    5     -821.766220     -822.140561     -822.246343  0.149106 -4.108869  4.068406
   scf:    6     -820.571917     -820.879437     -820.962151  0.214875 -4.098571  1.071411
   scf:    7     -820.646160     -820.929293     -821.006285  0.118447 -4.120770  1.444707
   scf:    8     -820.917195     -821.040782     -821.124484  0.074690 -4.136336  0.860822
   scf:    9     -820.524149     -820.972744     -821.078183  0.186376 -4.163489  0.985882
   scf:   10     -821.069969     -821.145076     -821.241641  0.088603 -4.159060  0.636087
   scf:   11     -820.847427     -821.096028     -821.192283  0.087360 -4.175934  0.720769
   scf:   12     -821.015717     -821.154379     -821.258261  0.092871 -4.179959  0.454903
   scf:   13     -821.160853     -821.185416     -821.288266  0.036042 -4.184927  0.424504
   scf:   14     -821.176163     -821.193687     -821.297213  0.025612 -4.191440  0.338577
   scf:   15     -821.176547     -821.192089     -821.298528  0.025271 -4.199578  0.282357
   scf:   16     -821.076822     -821.168879     -821.272160  0.039883 -4.199847  0.454378
   scf:   17     -821.177601     -821.197937     -821.303476  0.038725 -4.203188  0.232433
   scf:   18     -821.198401     -821.202003     -821.308488  0.018765 -4.205229  0.183375
   scf:   19     -821.276342     -821.281374     -821.388977  0.009080 -4.208294  0.164902
   scf:   20     -821.198569     -821.200811     -821.308130  0.014215 -4.209687  0.121568
   scf:   21     -821.192468     -821.199870     -821.307451  0.011751 -4.210869  0.144941
   scf:   22     -821.200379     -821.201836     -821.310176  0.010509 -4.212413  0.081815
   scf:   23     -821.200843     -821.201907     -821.310103  0.009446 -4.215364  0.063427
   scf:   24     -821.199879     -821.201512     -821.310377  0.006169 -4.215591  0.062440
   scf:   25     -821.199901     -821.201239     -821.310339  0.004535 -4.216676  0.049913
   scf:   26     -821.201423     -821.201734     -821.310622  0.006508 -4.217423  0.040259
   scf:   27     -821.200515     -821.201377     -821.310580  0.003238 -4.218346  0.045038
   scf:   28     -821.201310     -821.201475     -821.310773  0.002236 -4.218765  0.030475
   scf:   29     -821.201408     -821.201493     -821.310755  0.001742 -4.219555  0.022200
   scf:   30     -821.200883     -821.201301     -821.310731  0.002429 -4.220016  0.018183
   scf:   31     -821.200897     -821.201198     -821.310742  0.002105 -4.220640  0.019525
   scf:   32     -821.201331     -821.201320     -821.310813  0.001522 -4.220719  0.015664
   scf:   33     -821.201266     -821.201302     -821.310814  0.000625 -4.221281  0.010553
   scf:   34     -821.201065     -821.201220     -821.310791  0.001070 -4.221566  0.017169
   scf:   35     -821.201025     -821.201155     -821.310807  0.001222 -4.222011  0.014503
   scf:   36     -821.201232     -821.201210     -821.310824  0.000735 -4.221959  0.008338
   scf:   37     -821.201246     -821.201231     -821.310827  0.000342 -4.222287  0.005234
   scf:   38     -821.201007     -821.201126     -821.310821  0.000814 -4.222553  0.007047
   scf:   39     -821.201137     -821.201139     -821.310824  0.000591 -4.222732  0.005513
   scf:   40     -821.201181     -821.201165     -821.310828  0.000493 -4.222715  0.004613
   scf:   41     -821.201175     -821.201171     -821.310828  0.000232 -4.222915  0.003597
   scf:   42     -821.201120     -821.201148     -821.310828  0.000333 -4.223011  0.004079
   scf:   43     -821.201096     -821.201124     -821.310828  0.000332 -4.223164  0.003532
   scf:   44     -821.201153     -821.201140     -821.310829  0.000221 -4.223163  0.002353
   scf:   45     -821.201164     -821.201152     -821.310829  0.000145 -4.223266  0.001616
   scf:   46     -821.201087     -821.201120     -821.310829  0.000204 -4.223350  0.001937
   scf:   47     -821.201133     -821.201127     -821.310829  0.000165 -4.223401  0.001803
   scf:   48     -821.201136     -821.201132     -821.310830  0.000129 -4.223423  0.001360
   scf:   49     -821.201122     -821.201127     -821.310830  0.000066 -4.223493  0.001337
   scf:   50     -821.201132     -821.201130     -821.310830  0.000089 -4.223508  0.001008
   scf:   51     -821.201119     -821.201124     -821.310830  0.000084 -4.223562  0.001015
   scf:   52     -821.201126     -821.201125     -821.310830  0.000068 -4.223571  0.000682

SCF Convergence by DM+H criterion
max |DM_out - DM_in|         :     0.0000675078
max |H_out - H_in|      (eV) :     0.0006819559
SCF cycle converged after 52 iterations

Using DM_out to compute the final energy and forces
No. of atoms with KB's overlaping orbs in proc 0. Max # of overlaps:       9      33

siesta: E_KS(eV) =             -821.2011

siesta: E_KS - E_eggbox =      -821.2011

siesta: Atomic forces (eV/Ang):
     1    0.953590 -116.795846    0.948739
     2    1.102787   -0.977303    1.085456
     3   -0.663934   -0.019987    0.032887
     4    0.064827   -0.255602    0.074455
     5    0.017462   -0.023939   -0.694362
     6    1.288397   -0.020155   -0.076960
     7    0.146792    1.267066    0.153067
     8   -0.088131   -0.023819    1.293461
     9   -2.818866  116.850718   -2.813791
----------------------------------------
   Tot    0.002924    0.001133    0.002953
----------------------------------------
   Max  116.850718
   Res   31.811005    sqrt( Sum f_i^2 / 3N )
----------------------------------------
   Max  116.850718    constrained

Stress-tensor-Voigt (kbar):      -10.94     -136.79      -11.05       -4.89       -4.91       -9.49
(Free)E + p*V (eV/cell)     -788.2779
Target enthalpy (eV/cell)     -821.3108

coxmol: Writing XMOL coordinates into file md.xyz                                                              

siesta: Program's energy decomposition (eV):
siesta: Ebs     =      -286.494213
siesta: Eions   =      1040.352437
siesta: Ena     =       135.406725
siesta: Ekin    =       311.507568
siesta: Enl     =         0.086747
siesta: Eso     =         0.000000
siesta: Eldau   =         0.000000
siesta: DEna    =        13.295533
siesta: DUscf   =         1.965847
siesta: DUext   =         0.000000
siesta: Enegf   =         0.000000
siesta: Exc     =      -243.111108
siesta: eta*DQ  =         0.000000
siesta: Emadel  =         0.000000
siesta: Emeta   =         0.000000
siesta: Emolmec =         0.000000
siesta: Ekinion =         0.000000
siesta: Eharris =      -821.201126
siesta: Etot    =      -821.201125
siesta: FreeEng =      -821.310830

siesta: Final energy (eV):
siesta:  Band Struct. =    -286.494213
siesta:       Kinetic =     311.507568
siesta:       Hartree =     632.897746
siesta:       Eldau   =       0.000000
siesta:       Eso     =       0.000000
siesta:    Ext. field =       0.000000
siesta:       Enegf   =       0.000000
siesta:   Exch.-corr. =    -243.111108
siesta:  Ion-electron =   -1546.937439
siesta:       Ion-ion =      24.442108
siesta:       Ekinion =       0.000000
siesta:         Total =    -821.201125
siesta:         Fermi =      -4.223571

siesta: Atomic forces (eV/Ang):
siesta:      1    0.953590 -116.795846    0.948739
siesta:      2    1.102787   -0.977303    1.085456
siesta:      3   -0.663934   -0.019987    0.032887
siesta:      4    0.064827   -0.255602    0.074455
siesta:      5    0.017462   -0.023939   -0.694362
siesta:      6    1.288397   -0.020155   -0.076960
siesta:      7    0.146792    1.267066    0.153067
siesta:      8   -0.088131   -0.023819    1.293461
siesta:      9   -2.818866  116.850718   -2.813791
siesta: ----------------------------------------
siesta:    Tot    0.002924    0.001133    0.002953

siesta: Stress tensor (static) (eV/Ang**3):
siesta:    -0.006827   -0.003051   -0.005926
siesta:    -0.003051   -0.085375   -0.003062
siesta:    -0.005926   -0.003062   -0.006896

siesta: Cell volume =       1000.000000 Ang**3

siesta: Pressure (static):
siesta:                Solid            Molecule  Units
siesta:           0.00035977          0.00003487  Ry/Bohr**3
siesta:           0.03303290          0.00320208  eV/Ang**3
siesta:          52.92511291          5.13035321  kBar
(Free)E+ p_basis*V_orbitals  =        -818.984241
(Free)Eharris+ p_basis*V_orbitals  =        -818.984241

>> End of run:  24-FEB-2020  16:01:57
Job completed
